/*--------------------------------*- C++ -*----------------------------------*\
| =========                 |                                                 |
| \\      /  F ield         | OpenFOAM: The Open Source CFD Toolbox           |
|  \\    /   O peration     | Version:  3.0.1                                 |
|   \\  /    A nd           | Web:      www.OpenFOAM.org                      |
|    \\/     M anipulation  |                                                 |
\*---------------------------------------------------------------------------*/
FoamFile
{
    version     2.0;
    format      ascii;
    class       volScalarField;
    location    "1.5";
    object      p;
}
// * * * * * * * * * * * * * * * * * * * * * * * * * * * * * * * * * * * * * //

dimensions      [0 2 -2 0 0 0 0];

internalField   nonuniform List<scalar> 
9600
(
1.61063e-10
0.000631355
0.00113905
0.000529624
0.00111894
0.00226085
0.000488625
0.000240115
0.0014575
0.00198702
0.00248408
0.00407211
0.00500312
0.00564672
0.00672536
0.00769519
0.0100543
0.0126313
0.0150661
0.0237255
1.79354e-06
0.000627413
0.00113873
0.000532448
0.00112321
0.00223376
0.000496647
0.000247769
0.00145581
0.00199944
0.00248392
0.004047
0.00500481
0.00557414
0.00672767
0.00763866
0.010063
0.0124547
0.0150671
0.0227352
3.45244e-06
0.000623256
0.00113887
0.000535722
0.00112465
0.00220321
0.000508968
0.000257838
0.00145557
0.00200927
0.00248059
0.00401954
0.00500376
0.00554124
0.00672433
0.00758485
0.010065
0.0123223
0.0150234
0.0217747
5.15101e-06
0.000619417
0.00113838
0.00053769
0.0011246
0.0021713
0.000520825
0.000272346
0.00145538
0.00201482
0.00247755
0.00398896
0.00500168
0.00550105
0.00671862
0.00753142
0.0100578
0.0122005
0.0149404
0.020869
7.1617e-06
0.000615567
0.00113678
0.000538622
0.00112512
0.00213737
0.000532195
0.000290708
0.00145451
0.00201797
0.00247509
0.00395487
0.00499919
0.00545515
0.00671484
0.0074739
0.0100498
0.0120677
0.01482
0.0200282
9.51e-06
0.000611598
0.00113411
0.000539067
0.00112655
0.00210173
0.000543873
0.000311647
0.00145307
0.00201984
0.00247262
0.00391944
0.00499646
0.00540605
0.00671135
0.00741518
0.0100382
0.0119069
0.0146632
0.0192379
1.21353e-05
0.00060746
0.00113057
0.000539424
0.00112887
0.002065
0.000555998
0.000333961
0.00145142
0.00202115
0.00246993
0.0038836
0.00499348
0.00535425
0.00670625
0.00735683
0.0100167
0.0117694
0.0144672
0.0184853
1.49586e-05
0.000603087
0.00112643
0.000540009
0.00113199
0.00202717
0.000568535
0.000356869
0.00144994
0.00202233
0.00246693
0.00384746
0.00499017
0.00530005
0.00669849
0.00729873
0.00998256
0.0116329
0.0142293
0.0177658
1.79188e-05
0.000598434
0.00112194
0.000540951
0.00113565
0.00198821
0.000581473
0.000379894
0.00144882
0.00202356
0.00246346
0.00381115
0.00498612
0.00524429
0.00668699
0.00724145
0.00993355
0.0114971
0.0139509
0.0170763
2.0986e-05
0.000593478
0.00111728
0.000542188
0.00113961
0.00194819
0.000594763
0.000402756
0.00144811
0.00202486
0.0024593
0.00377466
0.00498088
0.00518804
0.00667042
0.0071859
0.00986765
0.0113611
0.0136347
0.0164121
2.41542e-05
0.000588196
0.00111253
0.000543596
0.00114374
0.00190722
0.000608334
0.000425289
0.00144772
0.00202624
0.00245423
0.00373788
0.00497399
0.00513223
0.0066474
0.00713273
0.00978306
0.0112242
0.0132848
0.0157666
2.74302e-05
0.000582561
0.0011077
0.000545072
0.00114799
0.00186543
0.000622114
0.000447383
0.00144749
0.00202774
0.002448
0.00370074
0.00496488
0.00507745
0.0066166
0.00708239
0.0096782
0.0110844
0.0129067
0.015133
3.08276e-05
0.000576538
0.00110282
0.000546554
0.00115229
0.00182291
0.000636027
0.000468975
0.00144725
0.00202946
0.00244037
0.00366314
0.0049529
0.0050241
0.00657683
0.00703493
0.00955226
0.0109394
0.0125069
0.0145059
3.43647e-05
0.00057009
0.00109785
0.000548007
0.00115655
0.00177977
0.000649982
0.00049003
0.00144678
0.00203156
0.00243107
0.00362483
0.00493746
0.00497244
0.00652695
0.0069898
0.00940574
0.0107852
0.0120921
0.0138816
3.80641e-05
0.000563169
0.0010928
0.000549414
0.00116069
0.0017361
0.000663881
0.000510556
0.00144581
0.00203424
0.00241981
0.00358551
0.00491813
0.00492251
0.00646602
0.00694582
0.00924024
0.0106178
0.0116688
0.0132588
4.19523e-05
0.000555726
0.00108765
0.000550764
0.0011646
0.00169203
0.000677592
0.000530623
0.00144404
0.00203775
0.0024063
0.00354678
0.00489448
0.00487407
0.00639381
0.00690113
0.00905783
0.0104335
0.0112425
0.0126374
4.60613e-05
0.000547699
0.00108238
0.000552056
0.00116816
0.00164772
0.000690931
0.000550361
0.00144113
0.00204229
0.0023903
0.00350782
0.00486606
0.00482679
0.00631066
0.00685305
0.00886065
0.0102293
0.0108174
0.0120181
5.04291e-05
0.000539025
0.00107698
0.000553299
0.00117128
0.00160335
0.000703682
0.000569916
0.00143673
0.00204801
0.00237169
0.00346851
0.0048327
0.00478006
0.00621729
0.0067988
0.00865052
0.0100039
0.0103964
0.0114024
5.50996e-05
0.000529632
0.00107139
0.000554515
0.00117382
0.00155911
0.000715609
0.000589445
0.0014304
0.00205503
0.00235046
0.00342846
0.00479467
0.00473251
0.00611456
0.00673631
0.00842877
0.00975754
0.00998117
0.0107915
6.01242e-05
0.000519437
0.0010656
0.000555748
0.00117566
0.00151527
0.000726404
0.000609162
0.00142181
0.00206335
0.00232672
0.00338709
0.00475243
0.00468248
0.00600321
0.00666407
0.0081961
0.00949085
0.00957308
0.0101871
6.55621e-05
0.000508354
0.00105953
0.000557064
0.00117664
0.00147211
0.000735691
0.000629301
0.00141071
0.00207279
0.00230083
0.00334343
0.00470668
0.00462856
0.00588351
0.00658144
0.00795261
0.00920411
0.00917363
0.00959172
7.14781e-05
0.000496298
0.0010531
0.000558541
0.00117656
0.00142996
0.00074308
0.000650026
0.0013969
0.00208296
0.00227347
0.00329602
0.00465822
0.00456985
0.00575494
0.00648882
0.00769856
0.00889662
0.00878425
0.00900863
7.79439e-05
0.000483181
0.00104625
0.000560279
0.00117521
0.00138918
0.000748174
0.000671447
0.00138028
0.00209331
0.00224568
0.00324324
0.00460734
0.00450608
0.00561635
0.00638654
0.0074352
0.00856739
0.00840544
0.00844216
8.50426e-05
0.000468915
0.00103898
0.000562418
0.00117232
0.00135019
0.000750611
0.000693616
0.00136092
0.00210293
0.00221865
0.00318381
0.00455374
0.00443759
0.00546629
0.0062741
0.00716498
0.00821611
0.00803614
0.00789742
9.28603e-05
0.000453433
0.0010307
0.00056513
0.00116761
0.00131337
0.000750157
0.000716314
0.00133915
0.0021107
0.00219372
0.00311682
0.00449659
0.00436518
0.00530317
0.00615019
0.00689157
0.00784337
0.00767334
0.00737976
0.000101484
0.000436687
0.00102137
0.000568629
0.00116076
0.00127877
0.000746719
0.00073915
0.00131552
0.00211534
0.00217197
0.00304183
0.00443425
0.00428997
0.00512594
0.00601272
0.00661916
0.00745108
0.00731206
0.00689395
0.00011099
0.000418685
0.00101065
0.000573148
0.00115148
0.00124726
0.00074025
0.000761763
0.0012909
0.00211529
0.00215377
0.00295877
0.00436464
0.00421302
0.00493433
0.00585886
0.00635172
0.00704298
0.00694602
0.00644327
0.000121448
0.00039947
0.000998168
0.00057894
0.00113959
0.00121855
0.000730877
0.000783507
0.0012662
0.00210916
0.00213903
0.0028687
0.00428528
0.00413495
0.00472928
0.00568571
0.00609195
0.00662456
0.00656825
0.0060283
0.000132923
0.000379112
0.000983455
0.000586256
0.001125
0.00119254
0.00071905
0.00080324
0.00124239
0.002096
0.00212697
0.00277307
0.00419387
0.00405564
0.00451267
0.00549062
0.0058408
0.00620324
0.00617196
0.00564437
0.00014545
0.000357768
0.000965993
0.00059525
0.00110769
0.00116911
0.000705445
0.000819768
0.0012203
0.00207521
0.00211613
0.00267368
0.00408839
0.00397408
0.0042872
0.00527135
0.00559679
0.0057881
0.00575373
0.00528058
0.000159039
0.000335674
0.00094522
0.000605996
0.00108776
0.00114795
0.000690574
0.0008321
0.00120003
0.00204669
0.00210476
0.00257206
0.00396728
0.00388876
0.00405657
0.005027
0.00535643
0.00538794
0.00531593
0.00492127
0.000173658
0.000313159
0.000920575
0.000618449
0.00106549
0.00112848
0.000675999
0.000837885
0.0011812
0.00201066
0.00209091
0.00246922
0.00382993
0.00379795
0.00382452
0.00475843
0.00511493
0.0050088
0.00486616
0.00455019
0.000189228
0.000290607
0.000891584
0.000632382
0.00104139
0.00110985
0.00066283
0.000837575
0.00116293
0.00196736
0.00207266
0.00236532
0.00367666
0.00369988
0.00359451
0.00446774
0.00486674
0.00465299
0.00441507
0.00415713
0.000205624
0.000268412
0.000857859
0.000647324
0.00101621
0.00109108
0.000651909
0.000831263
0.00114386
0.00191741
0.00204713
0.00225988
0.00350828
0.00359318
0.00336972
0.00415785
0.00460635
0.00431898
0.00397326
0.00374184
0.000222665
0.000247022
0.000819202
0.000662529
0.000990624
0.00107137
0.000643671
0.000819356
0.00112238
0.00186138
0.00201304
0.00215213
0.00332632
0.00347678
0.00315282
0.0038324
0.00432895
0.00400274
0.00354861
0.00331176
0.000240102
0.000226918
0.000775678
0.000677109
0.000965127
0.00105001
0.000638357
0.000802407
0.00109681
0.00179945
0.00196912
0.00204172
0.00313232
0.00334936
0.00294554
0.00349534
0.00403112
0.0036999
0.00314555
0.0028768
0.000257647
0.000208598
0.000727493
0.000690095
0.000940242
0.00102616
0.000635827
0.000781055
0.0010652
0.00173176
0.00191524
0.00192865
0.00292741
0.00320931
0.00274851
0.00315095
0.00371037
0.00340586
0.00276644
0.00244585
0.00027494
0.000192565
0.000673466
0.000700456
0.000916338
0.000998949
0.000635819
0.000754355
0.00102534
0.00165802
0.00185339
0.00181376
0.00271266
0.00305413
0.00256124
0.00280506
0.00336548
0.00311462
0.00241232
0.00202575
0.000291607
0.000179321
0.00061731
0.000707089
0.000893562
0.000967644
0.000637435
0.000712498
0.000975752
0.0015772
0.00178569
0.0016989
0.00248956
0.00288056
0.0023815
0.00246467
0.0029977
0.00281867
0.00208273
0.0016223
0.000307251
0.000169305
0.000558599
0.000708901
0.000872162
0.000931561
0.000638775
0.000672316
0.000916064
0.0014917
0.00171287
0.00158584
0.00226004
0.00268579
0.00220536
0.00213648
0.0026114
0.00251021
0.00177489
0.00124111
0.000321382
0.000162875
0.00049814
0.000704843
0.000852567
0.000889994
0.000636552
0.000644359
0.000847121
0.00139372
0.00163455
0.00147609
0.00202651
0.00246854
0.00202791
0.00182525
0.00221381
0.00218326
0.00148267
0.000886709
0.000333578
0.000160292
0.000437015
0.000693792
0.000835054
0.00084256
0.000626898
0.000617437
0.0007722
0.00128388
0.00154891
0.00137034
0.00179224
0.00222943
0.00184357
0.00153245
0.00181346
0.00183595
0.00119745
0.000560316
0.000343405
0.000161691
0.000376525
0.000674635
0.000819462
0.000789682
0.0006067
0.000590832
0.000695389
0.00116344
0.00145252
0.00126751
0.00156162
0.00197095
0.00164664
0.00125621
0.00141859
0.00147103
0.000910702
0.000258808
0.000350357
0.000167081
0.000318073
0.000646273
0.000805438
0.000732983
0.000572397
0.00056199
0.000620276
0.001034
0.00134209
0.00116523
0.00133949
0.00169762
0.00143202
0.000992008
0.001035
0.00109365
0.000616577
-2.36508e-05
0.00035408
0.000176324
0.000263009
0.000607601
0.000792293
0.00067537
0.000521231
0.000526713
0.000550084
0.000899223
0.00121558
0.00105981
0.0011285
0.00141555
0.0011977
0.00073484
0.000666037
0.000709203
0.000312133
-0.000294086
0.000354325
0.000188379
0.000212744
0.000557786
0.000777892
0.000620539
0.000452506
0.000480177
0.000485759
0.000764315
0.00107317
0.000945566
0.000927542
0.00113179
0.000945917
0.000480121
0.000313066
0.00032233
-3.69906e-06
-0.000559686
0.000350859
0.0002022
0.00016877
0.000496497
0.000758203
0.000571324
0.000370299
0.000418294
0.000424992
0.000634059
0.000916801
0.000816736
0.00073368
0.000852277
0.000681109
0.000224196
-2.46145e-05
-6.29198e-05
-0.000330365
-0.000826044
0.000343646
0.000216599
0.000132192
0.000424703
0.000728087
0.000529547
0.000281916
0.000337924
0.000362206
0.000511214
0.000749933
0.000670211
0.000542636
0.000579783
0.000408066
-3.46223e-05
-0.000348282
-0.000442679
-0.000666243
-0.0010965
0.000332932
0.000229978
0.000103625
0.000344444
0.00068297
0.000494994
0.000194528
0.000238832
0.00028938
0.000395053
0.000579194
0.000506983
0.000348768
0.000314133
0.000130943
-0.000296432
-0.000658683
-0.000813247
-0.0010093
-0.00137276
0.000318965
0.000240753
8.31868e-05
0.000258471
0.000619652
0.000464251
0.000114157
0.000123103
0.00019944
0.000283146
0.000411458
0.000330482
0.00014733
5.29482e-05
-0.000147942
-0.000560875
-0.000956097
-0.00117043
-0.00135658
-0.00165612
0.000302522
0.00024733
7.03118e-05
0.000170359
0.000536142
0.000431736
4.52025e-05
-3.63629e-06
8.83552e-05
0.000170106
0.000249716
0.000146504
-6.23937e-05
-0.000207394
-0.000427453
-0.000827831
-0.00124228
-0.00151065
-0.00170346
-0.00194755
0.000283988
0.000248398
6.37043e-05
8.42657e-05
0.000432394
0.000389653
-1.11716e-05
-0.00013206
-4.39962e-05
4.6987e-05
9.23307e-05
-3.79994e-05
-0.000277333
-0.00046913
-0.000707776
-0.00109731
-0.00152057
-0.00183264
-0.00204357
-0.0022455
0.000263751
0.000243164
6.09219e-05
3.53744e-06
0.000310384
0.00033097
-5.68006e-05
-0.000253464
-0.000195369
-9.37378e-05
-6.34823e-05
-0.000218858
-0.000493124
-0.000731458
-0.000990346
-0.00136967
-0.00179379
-0.00213773
-0.00237133
-0.00254502
0.000242333
0.00023112
5.8256e-05
-6.94669e-05
0.000174715
0.00025094
-9.70073e-05
-0.000362443
-0.000359378
-0.00025577
-0.000224397
-0.000395757
-0.000704463
-0.000991012
-0.00127472
-0.00164584
-0.00206414
-0.00242857
-0.0026846
-0.00284064
0.000220031
0.000212006
5.07329e-05
-0.00013316
3.22874e-05
0.000146891
-0.000140612
-0.000457082
-0.000525182
-0.000437553
-0.000399261
-0.000571312
-0.000907851
-0.00124369
-0.00155773
-0.00192609
-0.00233391
-0.00270749
-0.00298334
-0.0031294
0.000196786
0.000185733
3.57584e-05
-0.00018732
-0.000109285
1.94207e-05
-0.000197687
-0.000538825
-0.000683505
-0.00063483
-0.000592958
-0.000751387
-0.00110353
-0.00148485
-0.00183486
-0.00220833
-0.00260567
-0.00297781
-0.0032683
-0.00341127
0.000172186
0.000152768
1.18798e-05
-0.000231876
-0.000244287
-0.000128446
-0.000275327
-0.000612671
-0.000829304
-0.000839122
-0.000804896
-0.000943611
-0.00129489
-0.00171183
-0.00210085
-0.00248765
-0.00287983
-0.00324378
-0.00354028
-0.00368571
0.000145559
0.00011407
-2.22326e-05
-0.000275424
-0.000368963
-0.000290362
-0.00037772
-0.000687542
-0.000961181
-0.00104018
-0.00103142
-0.00115245
-0.0014881
-0.00192684
-0.00235173
-0.00275837
-0.00315316
-0.0035084
-0.00380113
-0.00395047
0.0001161
7.06625e-05
-6.71804e-05
-0.000319873
-0.000481388
-0.00045761
-0.00050537
-0.00077323
-0.00108093
-0.00123039
-0.0012653
-0.00137757
-0.00168911
-0.00213367
-0.00258698
-0.00301563
-0.00342007
-0.00377165
-0.00405421
-0.00420394
8.29562e-05
2.35286e-05
-0.000122304
-0.000369892
-0.000582091
-0.000622275
-0.000655625
-0.000877029
-0.00119386
-0.00140655
-0.00149702
-0.00161522
-0.00190186
-0.00233731
-0.00280897
-0.00325703
-0.00367465
-0.00402988
-0.00430185
-0.00444641
4.52813e-05
-2.69104e-05
-0.000185875
-0.000428575
-0.000674804
-0.000779759
-0.000822341
-0.00100229
-0.00130803
-0.00156918
-0.00171874
-0.00185877
-0.00212677
-0.00254272
-0.00302057
-0.00348353
-0.00391332
-0.00427773
-0.0045434
-0.00467879
2.3578e-06
-8.06007e-05
-0.000256009
-0.000497503
-0.000764334
-0.000927857
-0.000997656
-0.00114838
-0.00143103
-0.00172121
-0.00192642
-0.00209925
-0.00235938
-0.00275328
-0.00322529
-0.00369695
-0.00413556
-0.0045106
-0.0047758
-0.00490079
-4.63083e-05
-0.000137926
-0.000330899
-0.00057673
-0.000855637
-0.0010669
-0.00117444
-0.00131231
-0.00156764
-0.00186816
-0.00211947
-0.00232981
-0.00259327
-0.00296845
-0.00342642
-0.00389902
-0.00434247
-0.00472594
-0.00499556
-0.00511155
-0.000101009
-0.000199429
-0.000409372
-0.000665255
-0.000952559
-0.00119913
-0.00134773
-0.00148878
-0.0017193
-0.00201639
-0.0022998
-0.00254652
-0.0028212
-0.00318323
-0.00362485
-0.0040913
-0.00453508
-0.00492294
-0.00519941
-0.00531037
-0.000161866
-0.000265735
-0.000490977
-0.000761443
-0.00105679
-0.00132845
-0.00151591
-0.00167135
-0.00188431
-0.00217024
-0.00247074
-0.00274797
-0.00303808
-0.00339229
-0.00381769
-0.00427358
-0.00471334
-0.00510141
-0.00538419
-0.00549526
-0.000228768
-0.000337478
-0.00057588
-0.00086348
-0.0011686
-0.00145848
-0.00167983
-0.00185526
-0.00205941
-0.00233142
-0.00263652
-0.0029348
-0.00324022
-0.00359077
-0.00400055
-0.00444317
-0.0048758
-0.00526082
-0.0055474
-0.00566218
-0.000301424
-0.000414961
-0.000664614
-0.000970099
-0.00128771
-0.00159178
-0.00184083
-0.00203822
-0.00224101
-0.0024996
-0.00280027
-0.00310879
-0.00342526
-0.00377406
-0.00416947
-0.00459683
-0.00501996
-0.00539912
-0.0056859
-0.00580547
-0.000379577
-0.000498173
-0.00075772
-0.00108054
-0.00141327
-0.0017302
-0.00200117
-0.00221995
-0.00242621
-0.00267314
-0.00296315
-0.00327244
-0.00359305
-0.00393813
-0.00431966
-0.00472912
-0.00514001
-0.00551116
-0.00579455
-0.00591825
-0.000462927
-0.000586933
-0.000855595
-0.00119452
-0.00154426
-0.00187463
-0.00216335
-0.00240093
-0.00261333
-0.00285098
-0.00312613
-0.00342728
-0.00374369
-0.00407978
-0.00444565
-0.00483364
-0.00522664
-0.00558704
-0.00586422
-0.0059902
-0.000551275
-0.00068076
-0.000958119
-0.00131207
-0.00167995
-0.00202528
-0.00232961
-0.00258284
-0.00280189
-0.00303247
-0.00329113
-0.00357566
-0.00387785
-0.00419592
-0.0045399
-0.00490272
-0.00527009
-0.00561274
-0.00587965
-0.00600468
-0.00064435
-0.00077906
-0.00106495
-0.00143337
-0.00181972
-0.00218173
-0.00250102
-0.00276819
-0.00299468
-0.00321925
-0.00346075
-0.00372235
-0.00399825
-0.00428471
-0.00459251
-0.00492075
-0.00525467
-0.00557058
-0.00582041
-0.00593968
-0.000741569
-0.000881323
-0.00117585
-0.00155903
-0.0019632
-0.00234302
-0.00267851
-0.00295888
-0.00319472
-0.00341653
-0.00364115
-0.00387729
-0.00411614
-0.00435191
-0.00459913
-0.00486232
-0.00513912
-0.00541791
-0.00565303
-0.00577151
-0.000839655
-0.000986702
-0.00129243
-0.00168961
-0.00211031
-0.00250758
-0.00286116
-0.00315807
-0.00340507
-0.00362832
-0.00384089
-0.00405274
-0.00425824
-0.00443702
-0.00458939
-0.00472092
-0.00484044
-0.00497191
-0.00513023
-0.00528291
-0.000936689
-0.00109449
-0.00141491
-0.0018247
-0.00226068
-0.00267574
-0.00304686
-0.00336488
-0.00362953
-0.00385968
-0.00406713
-0.00425615
-0.00442887
-0.00458165
-0.00470261
-0.00477001
-0.00470808
-0.0044494
-0.00404256
-0.00366842
-0.00103681
-0.00120312
-0.00153721
-0.00196249
-0.00241459
-0.00284705
-0.00323655
-0.00357437
-0.00386405
-0.00411465
-0.00432557
-0.00449787
-0.00461283
-0.00461779
-0.00441684
-0.00401025
-0.00352917
-0.00311104
-0.00287855
-0.00292109
-0.00114065
-0.00130913
-0.00165332
-0.00209927
-0.00257522
-0.00303134
-0.00343978
-0.00378548
-0.00407696
-0.00432499
-0.00451038
-0.00455647
-0.00439204
-0.00409719
-0.00378152
-0.00351483
-0.00332255
-0.00320265
-0.00316705
-0.00325045
-0.00124512
-0.00141465
-0.00175958
-0.00221674
-0.00271934
-0.00322729
-0.00370594
-0.00410529
-0.004367
-0.00443349
-0.00432376
-0.00412624
-0.00390494
-0.00370183
-0.00350711
-0.0033057
-0.0031158
-0.00296764
-0.00291591
-0.00303504
-0.00134455
-0.00153272
-0.00188633
-0.00233924
-0.00281744
-0.0032706
-0.00365879
-0.0039476
-0.00414453
-0.00428121
-0.00439526
-0.00450895
-0.00457233
-0.00452146
-0.00429061
-0.00384703
-0.00330751
-0.00285063
-0.00261468
-0.0026828
-0.0014202
-0.00160011
-0.00196618
-0.00245337
-0.00299469
-0.00352438
-0.00396163
-0.00421912
-0.00429115
-0.00424182
-0.00412511
-0.00397331
-0.00380157
-0.00361104
-0.00342282
-0.0032444
-0.00309135
-0.00299953
-0.00301069
-0.00318521
-0.0015171
-0.00171183
-0.00206064
-0.00251052
-0.00300262
-0.00349515
-0.00392994
-0.0042412
-0.00438453
-0.00435746
-0.00420801
-0.00402443
-0.00387606
-0.00376485
-0.00366583
-0.00356061
-0.00344362
-0.00334565
-0.00331953
-0.00344475
0.0208483
0.0135578
0.0042022
-0.0024319
-0.00478414
-0.00473622
-0.00418161
-0.00389009
-0.00412462
-0.00480522
-0.0055559
-0.00607657
-0.00643861
-0.00679864
-0.00713003
-0.00748773
-0.00797147
-0.00842745
-0.00874228
-0.00905975
-0.00945729
-0.00988044
-0.0103025
-0.0107027
-0.0110719
-0.011451
-0.0118648
-0.0122964
-0.012724
-0.0131472
-0.013587
-0.0140495
-0.0145135
-0.0149558
-0.0153902
-0.0158361
-0.0162858
-0.0167248
-0.0171654
-0.0176263
-0.0181003
-0.0185748
-0.0190567
-0.0195612
-0.0200673
-0.0205578
-0.0210545
-0.0215733
-0.0220928
-0.022609
-0.0231502
-0.0237137
-0.024275
-0.0248382
-0.0254242
-0.026014
-0.0265994
-0.0271986
-0.0278168
-0.028445
-0.0290789
-0.029727
-0.0303953
-0.0310772
-0.0317613
-0.0324543
-0.0331573
-0.0338665
-0.0345901
-0.0353379
-0.0361055
-0.0368743
-0.0376627
-0.0384617
-0.039267
-0.0400881
-0.0409287
-0.0417918
-0.0426566
-0.0435322
-0.0444394
-0.0453434
-0.0462733
-0.0472225
-0.0481656
-0.0491542
-0.0501504
-0.0511353
-0.0521787
-0.0532226
-0.0542597
-0.0553461
-0.0564455
-0.0575464
-0.0586613
-0.0598003
-0.0609544
-0.062086
-0.0631352
-0.0641751
0.0200385
0.0134289
0.0042987
-0.00230632
-0.00470747
-0.00469622
-0.00415475
-0.00386988
-0.00410933
-0.00479383
-0.00554747
-0.00606994
-0.00643299
-0.00679383
-0.00712558
-0.00748333
-0.00796755
-0.00842418
-0.00873919
-0.00905673
-0.0094545
-0.00987789
-0.0103002
-0.0107006
-0.0110699
-0.0114492
-0.011863
-0.0122948
-0.0127226
-0.0131458
-0.0135857
-0.0140483
-0.0145124
-0.0149547
-0.0153892
-0.0158352
-0.016285
-0.016724
-0.0171647
-0.0176255
-0.0180997
-0.0185741
-0.0190561
-0.0195606
-0.0200668
-0.0205572
-0.021054
-0.0215728
-0.0220923
-0.0226086
-0.0231497
-0.0237133
-0.0242746
-0.0248378
-0.0254238
-0.0260137
-0.026599
-0.0271982
-0.0278165
-0.0284447
-0.0290787
-0.0297267
-0.030395
-0.0310769
-0.0317611
-0.0324541
-0.033157
-0.0338663
-0.0345898
-0.0353377
-0.0361053
-0.0368741
-0.0376626
-0.0384615
-0.0392669
-0.0400879
-0.0409285
-0.0417917
-0.0426564
-0.043532
-0.0444393
-0.0453433
-0.0462732
-0.0472223
-0.0481655
-0.0491541
-0.0501503
-0.0511352
-0.0521786
-0.0532225
-0.0542597
-0.055346
-0.0564454
-0.0575463
-0.0586612
-0.0598002
-0.0609543
-0.062086
-0.0631352
-0.0641751
0.0193224
0.0133561
0.00452731
-0.00205223
-0.00457192
-0.00464577
-0.00413114
-0.00385157
-0.00409336
-0.00478001
-0.0055357
-0.00606026
-0.00642554
-0.00678844
-0.00712136
-0.00747941
-0.00796398
-0.00842103
-0.00873622
-0.00905398
-0.00945205
-0.00987559
-0.010298
-0.0106987
-0.0110681
-0.0114475
-0.0118615
-0.0122934
-0.0127212
-0.0131446
-0.0135845
-0.0140472
-0.0145115
-0.0149538
-0.0153884
-0.0158344
-0.0162842
-0.0167233
-0.017164
-0.0176249
-0.0180991
-0.0185736
-0.0190556
-0.0195601
-0.0200663
-0.0205568
-0.0210536
-0.0215724
-0.0220919
-0.0226082
-0.0231494
-0.023713
-0.0242742
-0.0248375
-0.0254235
-0.0260134
-0.0265987
-0.0271979
-0.0278162
-0.0284444
-0.0290784
-0.0297264
-0.0303948
-0.0310767
-0.0317609
-0.0324539
-0.0331568
-0.0338661
-0.0345897
-0.0353375
-0.0361051
-0.0368739
-0.0376624
-0.0384613
-0.0392667
-0.0400878
-0.0409284
-0.0417916
-0.0426563
-0.0435319
-0.0444392
-0.0453432
-0.0462731
-0.0472222
-0.0481654
-0.049154
-0.0501502
-0.0511351
-0.0521785
-0.0532224
-0.0542596
-0.0553459
-0.0564453
-0.0575462
-0.0586611
-0.0598002
-0.0609543
-0.062086
-0.0631351
-0.0641752
0.0186371
0.0132765
0.00480566
-0.0017343
-0.00439264
-0.0045809
-0.00410191
-0.00382795
-0.00407268
-0.00476158
-0.00551833
-0.0060447
-0.00641323
-0.00677997
-0.00711582
-0.00747501
-0.00795961
-0.0084167
-0.00873241
-0.00905095
-0.00944949
-0.00987304
-0.0102955
-0.0106964
-0.011066
-0.0114456
-0.0118597
-0.0122917
-0.0127197
-0.0131432
-0.0135833
-0.014046
-0.0145104
-0.0149528
-0.0153874
-0.0158335
-0.0162834
-0.0167225
-0.0171632
-0.0176242
-0.0180984
-0.018573
-0.019055
-0.0195595
-0.0200658
-0.0205563
-0.0210531
-0.021572
-0.0220915
-0.0226078
-0.0231489
-0.0237126
-0.0242739
-0.0248371
-0.0254232
-0.0260131
-0.0265984
-0.0271976
-0.0278159
-0.0284441
-0.0290781
-0.0297262
-0.0303945
-0.0310765
-0.0317606
-0.0324537
-0.0331566
-0.0338659
-0.0345895
-0.0353373
-0.0361049
-0.0368738
-0.0376622
-0.0384612
-0.0392666
-0.0400877
-0.0409282
-0.0417914
-0.0426562
-0.0435318
-0.0444391
-0.045343
-0.046273
-0.0472221
-0.0481653
-0.0491539
-0.0501501
-0.051135
-0.0521784
-0.0532224
-0.0542595
-0.0553459
-0.0564453
-0.0575462
-0.0586611
-0.0598001
-0.0609543
-0.062086
-0.0631352
-0.0641754
0.0179309
0.0131421
0.00508129
-0.00139938
-0.0041981
-0.00451041
-0.00407064
-0.0038011
-0.00404818
-0.0047386
-0.00549485
-0.00602236
-0.00639479
-0.0067669
-0.00710786
-0.00746951
-0.00795366
-0.00841017
-0.00872696
-0.0090472
-0.00944653
-0.00986995
-0.0102923
-0.0106934
-0.0110635
-0.0114433
-0.0118574
-0.0122894
-0.0127175
-0.0131413
-0.0135816
-0.0140445
-0.014509
-0.0149515
-0.0153862
-0.0158324
-0.0162824
-0.0167216
-0.0171624
-0.0176234
-0.0180976
-0.0185722
-0.0190543
-0.0195589
-0.0200652
-0.0205557
-0.0210525
-0.0215714
-0.022091
-0.0226073
-0.0231485
-0.0237122
-0.0242735
-0.0248368
-0.0254228
-0.0260127
-0.0265981
-0.0271973
-0.0278156
-0.0284438
-0.0290779
-0.0297259
-0.0303943
-0.0310762
-0.0317604
-0.0324535
-0.0331564
-0.0338657
-0.0345893
-0.0353371
-0.0361047
-0.0368736
-0.0376621
-0.038461
-0.0392664
-0.0400875
-0.0409281
-0.0417913
-0.042656
-0.0435317
-0.0444389
-0.0453429
-0.0462728
-0.047222
-0.0481652
-0.0491538
-0.05015
-0.0511349
-0.0521783
-0.0532223
-0.0542594
-0.0553458
-0.0564452
-0.0575461
-0.058661
-0.0598001
-0.0609542
-0.062086
-0.0631353
-0.0641756
0.017205
0.0129468
0.0053475
-0.00105329
-0.00399219
-0.00443603
-0.00403953
-0.0037735
-0.00402167
-0.00471296
-0.00546776
-0.0059957
-0.00637188
-0.00674993
-0.00709749
-0.00746263
-0.00794577
-0.00840107
-0.00871955
-0.00904244
-0.00944294
-0.0098661
-0.010288
-0.0106895
-0.0110605
-0.0114409
-0.0118548
-0.0122865
-0.0127147
-0.0131389
-0.0135795
-0.0140425
-0.014507
-0.0149498
-0.0153847
-0.015831
-0.0162811
-0.0167204
-0.0171612
-0.0176223
-0.0180967
-0.0185714
-0.0190535
-0.0195581
-0.0200645
-0.0205551
-0.0210519
-0.0215708
-0.0220904
-0.0226067
-0.023148
-0.0237117
-0.0242731
-0.0248363
-0.0254224
-0.0260123
-0.0265977
-0.027197
-0.0278153
-0.0284435
-0.0290775
-0.0297256
-0.030394
-0.0310759
-0.0317601
-0.0324532
-0.0331562
-0.0338655
-0.034589
-0.0353369
-0.0361045
-0.0368734
-0.0376619
-0.0384608
-0.0392662
-0.0400873
-0.0409279
-0.0417911
-0.0426559
-0.0435315
-0.0444388
-0.0453428
-0.0462727
-0.0472219
-0.0481651
-0.0491537
-0.0501499
-0.0511348
-0.0521782
-0.0532222
-0.0542593
-0.0553457
-0.0564451
-0.057546
-0.0586609
-0.0598
-0.0609542
-0.062086
-0.0631354
-0.064176
0.0164718
0.0127012
0.00560616
-0.000694464
-0.00377363
-0.00435711
-0.0040091
-0.00374606
-0.00399367
-0.00468552
-0.00543889
-0.00596711
-0.00634685
-0.00673085
-0.00708559
-0.00745461
-0.00793617
-0.00838975
-0.00871037
-0.00903663
-0.00943858
-0.00986136
-0.0102827
-0.0106846
-0.0110569
-0.0114382
-0.011852
-0.0122831
-0.0127113
-0.013136
-0.0135769
-0.0140398
-0.0145044
-0.0149475
-0.0153828
-0.0158292
-0.0162794
-0.0167189
-0.0171598
-0.017621
-0.0180954
-0.0185703
-0.0190525
-0.0195572
-0.0200636
-0.0205543
-0.0210512
-0.0215701
-0.0220897
-0.0226061
-0.0231473
-0.0237111
-0.0242725
-0.0248358
-0.0254219
-0.0260119
-0.0265973
-0.0271965
-0.0278148
-0.0284431
-0.0290772
-0.0297253
-0.0303936
-0.0310756
-0.0317598
-0.0324529
-0.0331559
-0.0338652
-0.0345887
-0.0353366
-0.0361043
-0.0368732
-0.0376617
-0.0384606
-0.039266
-0.0400871
-0.0409277
-0.041791
-0.0426557
-0.0435313
-0.0444386
-0.0453426
-0.0462725
-0.0472218
-0.0481649
-0.0491535
-0.0501498
-0.0511346
-0.0521781
-0.0532221
-0.0542592
-0.0553456
-0.056445
-0.057546
-0.0586609
-0.0597999
-0.0609541
-0.062086
-0.0631356
-0.0641765
0.0157455
0.0124122
0.00585297
-0.000325363
-0.00354263
-0.00427351
-0.00397975
-0.00371943
-0.00396448
-0.00465649
-0.00540882
-0.00593748
-0.00632073
-0.00671064
-0.00707273
-0.00744575
-0.00792539
-0.00837694
-0.00869995
-0.00902998
-0.00943351
-0.0098558
-0.0102763
-0.0106787
-0.0110528
-0.0114353
-0.0118489
-0.0122794
-0.0127075
-0.0131327
-0.0135739
-0.0140366
-0.0145009
-0.0149445
-0.0153803
-0.0158269
-0.0162773
-0.016717
-0.0171582
-0.0176193
-0.0180937
-0.0185688
-0.0190513
-0.0195559
-0.0200624
-0.0205533
-0.0210503
-0.0215692
-0.0220888
-0.0226053
-0.0231466
-0.0237104
-0.0242719
-0.0248352
-0.0254214
-0.0260113
-0.0265968
-0.0271961
-0.0278143
-0.0284426
-0.0290767
-0.0297248
-0.0303933
-0.0310753
-0.0317595
-0.0324526
-0.0331556
-0.0338649
-0.0345884
-0.0353363
-0.036104
-0.0368729
-0.0376614
-0.0384604
-0.0392658
-0.0400869
-0.0409275
-0.0417908
-0.0426555
-0.0435311
-0.0444385
-0.0453425
-0.0462724
-0.0472216
-0.0481648
-0.0491534
-0.0501496
-0.0511345
-0.0521779
-0.0532219
-0.054259
-0.0553455
-0.0564449
-0.0575458
-0.0586608
-0.0597998
-0.0609541
-0.062086
-0.0631359
-0.0641771
0.015038
0.0120826
0.00607829
4.90949e-05
-0.00329934
-0.00418402
-0.00395095
-0.0036939
-0.00393435
-0.00462586
-0.00537754
-0.00590695
-0.00629378
-0.00668956
-0.0070591
-0.00743632
-0.00791396
-0.00836326
-0.0086887
-0.00902271
-0.00942789
-0.0098496
-0.0102692
-0.0106722
-0.0110481
-0.011432
-0.0118457
-0.0122756
-0.0127036
-0.0131294
-0.0135708
-0.0140329
-0.0144969
-0.0149408
-0.0153772
-0.0158241
-0.0162746
-0.0167148
-0.0171563
-0.0176174
-0.0180918
-0.0185671
-0.0190497
-0.0195543
-0.0200609
-0.0205522
-0.0210493
-0.0215681
-0.0220878
-0.0226043
-0.0231457
-0.0237095
-0.024271
-0.0248345
-0.0254207
-0.0260107
-0.0265962
-0.0271955
-0.0278138
-0.028442
-0.0290762
-0.0297244
-0.0303928
-0.0310748
-0.0317591
-0.0324522
-0.0331552
-0.0338645
-0.0345881
-0.035336
-0.0361037
-0.0368726
-0.0376611
-0.0384601
-0.0392655
-0.0400867
-0.0409273
-0.0417905
-0.0426553
-0.0435309
-0.0444383
-0.0453423
-0.0462722
-0.0472214
-0.0481646
-0.0491532
-0.0501494
-0.0511343
-0.0521778
-0.0532218
-0.0542589
-0.0553453
-0.0564448
-0.0575457
-0.0586606
-0.0597997
-0.060954
-0.0620861
-0.0631362
-0.0641778
0.0143585
0.0117154
0.00627224
0.000424652
-0.0030423
-0.00408608
-0.00392154
-0.00366974
-0.00390377
-0.00459371
-0.00534501
-0.00587553
-0.006266
-0.00666764
-0.00704477
-0.00742646
-0.00790215
-0.00834903
-0.00867687
-0.00901497
-0.00942188
-0.00984298
-0.0102617
-0.0106651
-0.0110429
-0.0114284
-0.0118423
-0.0122716
-0.0126997
-0.0131262
-0.0135678
-0.0140292
-0.0144925
-0.0149366
-0.0153736
-0.0158207
-0.0162715
-0.0167123
-0.0171543
-0.0176153
-0.0180896
-0.0185651
-0.0190479
-0.0195524
-0.020059
-0.0205507
-0.0210481
-0.0215669
-0.0220866
-0.0226033
-0.0231446
-0.0237084
-0.02427
-0.0248337
-0.0254199
-0.0260099
-0.0265955
-0.0271949
-0.0278131
-0.0284414
-0.0290756
-0.0297238
-0.0303922
-0.0310743