/*--------------------------------*- C++ -*----------------------------------*\
| =========                 |                                                 |
| \\      /  F ield         | OpenFOAM: The Open Source CFD Toolbox           |
|  \\    /   O peration     | Version:  3.0.1                                 |
|   \\  /    A nd           | Web:      www.OpenFOAM.org                      |
|    \\/     M anipulation  |                                                 |
\*---------------------------------------------------------------------------*/
FoamFile
{
    version     2.0;
    format      ascii;
    class       surfaceScalarField;
    location    "1.5";
    object      phi;
}
// * * * * * * * * * * * * * * * * * * * * * * * * * * * * * * * * * * * * * //

dimensions      [0 3 -1 0 0 0 0];

internalField   nonuniform List<scalar> 
19000
(
1.17673e-06
-3.32579e-08
1.16074e-06
4.94804e-08
1.16439e-06
-6.08579e-08
1.18288e-06
-3.27846e-07
1.18907e-06
3.88197e-07
1.12121e-06
-1.83216e-07
1.15557e-06
1.90441e-07
1.16155e-06
6.32893e-09
1.15998e-06
-3.43419e-07
1.18688e-06
-8.32007e-08
1.18072e-06
-8.88281e-08
1.17444e-06
-1.60993e-09
1.17629e-06
1.6121e-07
1.15505e-06
-4.94783e-09
1.16514e-06
4.55671e-07
1.13667e-06
5.61142e-08
1.15018e-06
3.34584e-07
1.11898e-06
-1.61737e-08
1.12742e-06
1.93065e-07
5.32887e-08
1.08506e-06
1.23169e-06
-4.06823e-08
1.21782e-06
6.33476e-08
1.22025e-06
-6.32931e-08
1.23853e-06
-3.46122e-07
1.2418e-06
3.84929e-07
1.17848e-06
-1.19895e-07
1.20722e-06
1.617e-07
1.21957e-06
-6.0235e-09
1.21697e-06
-3.40818e-07
1.24474e-06
-1.1097e-07
1.23687e-06
-8.09648e-08
1.23419e-06
1.07003e-09
1.22947e-06
1.65937e-07
1.21604e-06
8.48468e-09
1.2124e-06
4.59306e-07
1.20133e-06
6.71875e-08
1.19291e-06
3.43002e-07
1.18948e-06
-1.27449e-08
1.16737e-06
2.15179e-07
4.88633e-08
1.17179e-06
1.28765e-06
-4.55498e-08
1.27873e-06
7.22675e-08
1.27877e-06
-6.33287e-08
1.29632e-06
-3.63676e-07
1.29639e-06
3.84862e-07
1.24406e-06
-6.75683e-08
1.26226e-06
1.435e-07
1.28256e-06
-2.63208e-08
1.2763e-06
-3.34559e-07
1.30319e-06
-1.37857e-07
1.29477e-06
-7.25515e-08
1.29591e-06
-6.20694e-11
1.28629e-06
1.75548e-07
1.27796e-06
1.68231e-08
1.27159e-06
4.65668e-07
1.26624e-06
7.25388e-08
1.25949e-06
3.49754e-07
1.25624e-06
-9.49639e-09
1.24721e-06
2.24215e-07
5.91015e-08
1.23697e-06
1.34553e-06
-4.69725e-08
1.34216e-06
7.56355e-08
1.33995e-06
-6.11231e-08
1.35607e-06
-3.79797e-07
1.35367e-06
3.87263e-07
1.31547e-06
-2.93638e-08
1.32356e-06
1.35408e-07
1.34732e-06
-5.00765e-08
1.33906e-06
-3.26306e-07
1.3607e-06
-1.59499e-07
1.35573e-06
-6.7578e-08
1.35686e-06
-1.19268e-09
1.3478e-06
1.84611e-07
1.33992e-06
2.46975e-08
1.33742e-06
4.6817e-07
1.33194e-06
7.80223e-08
1.331e-06
3.50692e-07
1.32368e-06
-2.17515e-09
1.32274e-06
2.25157e-07
7.54619e-08
1.30638e-06
1.40644e-06
-4.50631e-08
1.4074e-06
7.46843e-08
1.40412e-06
-5.78504e-08
1.41753e-06
-3.93203e-07
1.41419e-06
3.90598e-07
1.38924e-06
-4.40924e-09
1.39142e-06
1.33229e-07
1.41244e-06
-7.11e-08
1.40501e-06
-3.18878e-07
1.41957e-06
-1.7405e-07
1.4192e-06
-6.72085e-08
1.41954e-06
-1.53785e-09
1.41292e-06
1.91234e-07
1.40485e-06
3.27659e-08
1.40584e-06
4.67177e-07
1.40008e-06
8.3789e-08
1.40258e-06
3.48187e-07
1.39257e-06
7.83424e-09
1.39468e-06
2.23051e-07
9.36522e-08
1.37649e-06
1.47153e-06
-4.09142e-08
1.47468e-06
7.15335e-08
1.47172e-06
-5.4895e-08
1.48113e-06
-4.02612e-07
1.47821e-06
3.93521e-07
1.46361e-06
1.01915e-08
1.46434e-06
1.32499e-07
1.47904e-06
-8.58042e-08
1.47324e-06
-3.13073e-07
1.48194e-06
-1.82752e-07
1.48415e-06
-6.94251e-08
1.48487e-06
-2.25062e-09
1.48088e-06
1.95218e-07
1.47367e-06
3.99827e-08
1.47723e-06
4.63615e-07
1.47141e-06
8.96052e-08
1.47592e-06
3.43682e-07
1.46372e-06
2.00316e-08
1.46763e-06
2.19143e-07
1.12807e-07
1.44847e-06
1.54132e-06
-3.60131e-08
1.54487e-06
6.79782e-08
1.54295e-06
-5.29777e-08
1.54779e-06
-4.07449e-07
1.54584e-06
3.95469e-07
1.53862e-06
1.74098e-08
1.54037e-06
1.30757e-07
1.54861e-06
-9.40468e-08
1.54338e-06
-3.07844e-07
1.5482e-06
-1.87573e-07
1.55068e-06
-7.19065e-08
1.55233e-06
-3.90064e-09
1.55096e-06
1.9659e-07
1.54557e-06
4.53737e-08
1.5514e-06
4.57786e-07
1.54539e-06
9.56088e-08
1.55136e-06
3.37718e-07
1.53705e-06
3.43398e-08
1.54246e-06
2.13738e-07
1.32363e-07
1.5229e-06
1.61564e-06
-3.15208e-08
1.61875e-06
6.48668e-08
1.6177e-06
-5.19307e-08
1.61835e-06
-4.08098e-07
1.6174e-06
3.96419e-07
1.61521e-06
1.95997e-08
1.61845e-06
1.27513e-07
1.62195e-06
-9.75453e-08
1.61609e-06
-3.01982e-07
1.61824e-06
-1.89717e-07
1.61972e-06
-7.33926e-08
1.62195e-06
-6.13292e-09
1.62276e-06
1.95786e-07
1.61942e-06
4.87075e-08
1.62741e-06
4.49801e-07
1.62101e-06
1.0201e-07
1.62843e-06
3.30295e-07
1.61229e-06
5.04805e-08
1.61904e-06
2.06989e-07
1.51524e-07
1.59988e-06
1.69399e-06
-2.7935e-08
1.69662e-06
6.22365e-08
1.69579e-06
-5.11057e-08
1.69327e-06
-4.05577e-07
1.69333e-06
3.96358e-07
1.69436e-06
1.85746e-08
1.6986e-06
1.23277e-07
1.69929e-06
-9.82395e-08
1.6923e-06
-2.94991e-07
1.69229e-06
-1.89709e-07
1.69239e-06
-7.34897e-08
1.69452e-06
-8.266e-09
1.69672e-06
1.93584e-07
1.69489e-06
5.05448e-08
1.70487e-06
4.39814e-07
1.69797e-06
1.08917e-07
1.70705e-06
3.21209e-07
1.68966e-06
6.78745e-08
1.69753e-06
1.99114e-07
1.6941e-07
1.67965e-06
1.77601e-06
-2.52215e-08
1.77846e-06
5.97864e-08
1.77724e-06
-4.98902e-08
1.77267e-06
-4.01001e-07
1.77395e-06
3.95071e-07
1.77678e-06
1.575e-08
1.78127e-06
1.18786e-07
1.78059e-06
-9.75586e-08
1.77258e-06
-2.86985e-07
1.77078e-06
-1.87902e-07
1.76958e-06
-7.22911e-08
1.77103e-06
-9.72087e-09
1.77389e-06
1.90728e-07
1.77261e-06
5.18188e-08
1.78437e-06
4.28062e-07
1.77694e-06
1.16346e-07
1.7878e-06
3.10345e-07
1.76984e-06
8.58316e-08
1.77846e-06
1.90499e-07
1.85245e-07
1.76262e-06
1.86165e-06
-2.31231e-08
1.8642e-06
5.72325e-08
1.86227e-06
-4.79561e-08
1.85649e-06
-3.95218e-07
1.85926e-06
3.923e-07
1.86284e-06
1.21642e-08
1.86701e-06
1.14617e-07
1.86581e-06
-9.63544e-08
1.85714e-06
-2.78314e-07
1.8539e-06
-1.84663e-07
1.85178e-06
-7.01739e-08
1.85225e-06
-1.01884e-08
1.8553e-06
1.87676e-07
1.85374e-06
5.33783e-08
1.86698e-06
4.14823e-07
1.85904e-06
1.24283e-07
1.87155e-06
2.97841e-07
1.85365e-06
1.03725e-07
1.8624e-06
1.81749e-07
1.98426e-07
1.84922e-06
1.9511e-06
-2.13796e-08
1.95391e-06
5.44161e-08
1.9512e-06
-4.52451e-08
1.9447e-06
-3.8872e-07
1.94906e-06
3.87944e-07
1.95274e-06
8.48089e-09
1.9563e-06
1.11064e-07
1.95499e-06
-9.50477e-08
1.946e-06
-2.69323e-07
1.94165e-06
-1.80311e-07
1.93911e-06
-6.7638e-08
1.93855e-06
-9.62509e-09
1.94165e-06
1.8457e-07
1.93927e-06
5.57626e-08
1.95373e-06
4.00362e-07
1.94532e-06
1.32693e-07
1.95907e-06
2.84093e-07
1.94175e-06
1.21043e-07
1.94987e-06
1.73626e-07
2.08514e-07
1.93979e-06
2.04461e-06
-1.97996e-08
2.04775e-06
5.1273e-08
2.04436e-06
-4.18549e-08
2.03737e-06
-3.81729e-07
2.04319e-06
3.82123e-07
2.04663e-06
5.04617e-09
2.04955e-06
1.0814e-07
2.04827e-06
-9.37652e-08
2.03924e-06
-2.60295e-07
2.03397e-06
-1.75043e-07
2.03148e-06
-6.51468e-08
2.03e-06
-8.14638e-09
2.03324e-06
1.81336e-07
2.02981e-06
5.91901e-08
2.04525e-06
3.84922e-07
2.03645e-06
1.41493e-07
2.05087e-06
2.69673e-07
2.03456e-06
1.37354e-07
2.04131e-06
1.66871e-07
2.15276e-07
2.03455e-06
2.14246e-06
-1.82552e-08
2.14594e-06
4.77859e-08
2.14203e-06
-3.79374e-08
2.13463e-06
-3.74337e-07
2.14165e-06
3.75109e-07
2.1447e-06
1.9947e-09
2.14718e-06
1.0566e-07
2.14585e-06
-9.24407e-08
2.13701e-06
-2.51454e-07
2.13091e-06
-1.68942e-07
2.12879e-06
-6.30255e-08
2.12655e-06
-5.90927e-09
2.13006e-06
1.77826e-07
2.12561e-06
6.36394e-08
2.14179e-06
3.68747e-07
2.13277e-06
1.50511e-07
2.14721e-06
2.55233e-07
2.13231e-06
1.5226e-07
2.13714e-06
1.62036e-07
2.18725e-07
2.13369e-06
2.2449e-06
-1.66616e-08
2.24872e-06
4.39575e-08
2.24442e-06
-3.36365e-08
2.23667e-06
-3.66588e-07
2.24457e-06
3.67207e-07
2.24721e-06
-6.40452e-10
2.24953e-06
1.0334e-07
2.24799e-06
-9.0902e-08
2.23952e-06
-2.42981e-07
2.2326e-06
-1.62019e-07
2.23101e-06
-6.14396e-08
2.22815e-06
-3.04848e-09
2.23206e-06
1.73919e-07
2.22676e-06
6.89362e-08
2.2434e-06
3.52108e-07
2.23443e-06
1.59481e-07
2.24826e-06
2.41404e-07
2.23512e-06
1.65394e-07
2.23786e-06
1.59294e-07
2.19226e-07
2.23736e-06
2.35218e-06
-1.49641e-08
2.35634e-06
3.97982e-08
2.35176e-06
-2.90599e-08
2.34369e-06
-3.58519e-07
2.35223e-06
3.5867e-07
2.35444e-06
-2.84921e-09
2.35689e-06
1.00884e-07
2.35494e-06
-8.89484e-08
2.34697e-06
-2.35015e-07
2.33922e-06
-1.54268e-07
2.33821e-06
-6.04281e-08
2.33483e-06
3.29118e-10
2.33917e-06
1.69579e-07
2.33329e-06
7.48216e-08
2.35008e-06
3.3532e-07
2.34149e-06
1.68068e-07
2.35416e-06
2.28738e-07
2.34308e-06
1.76466e-07
2.34388e-06
1.58496e-07
2.17393e-07
2.34572e-06
2.46456e-06
-1.31309e-08
2.46904e-06
3.5319e-08
2.46426e-06
-2.42751e-08
2.4559e-06
-3.50159e-07
2.46491e-06
3.49653e-07
2.46667e-06
-4.60751e-09
2.46951e-06
9.80491e-08
2.46696e-06
-8.64059e-08
2.45961e-06
-2.27658e-07
2.45103e-06
-1.4569e-07
2.45055e-06
-5.9949e-08
2.44676e-06
4.11663e-09
2.45146e-06
1.64879e-07
2.4453e-06
8.0984e-08
2.46189e-06
3.18725e-07
2.45402e-06
1.75938e-07
2.46517e-06
2.17594e-07
2.45625e-06
1.85384e-07
2.45543e-06
1.59321e-07
2.1387e-07
2.45895e-06
2.58231e-06
-1.11461e-08
2.5871e-06
3.05281e-08
2.58215e-06
-1.93202e-08
2.57351e-06
-3.41521e-07
2.58293e-06
3.40227e-07
2.5842e-06
-5.86988e-09
2.58759e-06
9.46563e-08
2.58433e-06
-8.31417e-08
2.57764e-06
-2.20976e-07
2.56826e-06
-1.36306e-07
2.56822e-06
-5.9907e-08
2.56416e-06
8.17257e-09
2.56904e-06
1.60001e-07
2.56295e-06
8.70747e-08
2.57899e-06
3.02688e-07
2.57211e-06
1.82811e-07
2.58161e-06
2.081e-07
2.57471e-06
1.9228e-07
2.57269e-06
1.6134e-07
2.09247e-07
2.57731e-06
2.70569e-06
-9.00491e-09
2.71078e-06
2.5432e-08
2.70568e-06
-1.42201e-08
2.69676e-06
-3.326e-07
2.70659e-06
3.30394e-07
2.7073e-06
-6.57421e-09
2.71137e-06
9.05859e-08
2.70729e-06
-7.90607e-08
2.70132e-06
-2.15009e-07
2.69119e-06
-1.26177e-07
2.69144e-06
-6.01585e-08
2.68732e-06
1.22999e-08
2.69211e-06
1.55209e-07
2.68644e-06
9.27472e-08
2.70157e-06
2.87551e-07
2.69586e-06
1.8853e-07
2.7038e-06
2.00155e-07
2.69863e-06
1.97451e-07
2.69587e-06
1.64102e-07
2.04006e-07
2.70111e-06
2.83497e-06
-6.71017e-09
2.84036e-06
2.0041e-08
2.83515e-06
-9.00142e-09
2.82592e-06
-3.23371e-07
2.83619e-06
3.20123e-07
2.83626e-06
-6.64909e-09
2.84109e-06
8.57586e-08
2.83613e-06
-7.41017e-08
2.83088e-06
-2.0976e-07
2.82012e-06
-1.15415e-07
2.82047e-06
-6.05075e-08
2.81653e-06
1.62399e-08
2.82093e-06
1.50807e-07
2.81596e-06
9.77184e-08
2.82998e-06
2.73529e-07
2.82539e-06
1.93119e-07
2.83204e-06
1.93508e-07
2.82831e-06
2.01183e-07
2.82512e-06
1.67292e-07
1.98459e-07
2.83066e-06
2.97046e-06
-4.27134e-09
2.97613e-06
1.43727e-08
2.97083e-06
-3.70175e-09
2.96124e-06
-3.13787e-07
2.97201e-06
3.09356e-07
2.97138e-06
-6.01903e-09
2.97702e-06
8.01208e-08
2.97115e-06
-6.82374e-08
2.96657e-06
-2.05183e-07
2.95535e-06
-1.04194e-07
2.95555e-06
-6.07043e-08
2.95209e-06
1.96981e-08
2.95582e-06
1.47081e-07
2.95172e-06
1.01821e-07
2.96459e-06
2.60658e-07
2.96092e-06
1.96789e-07
2.96656e-06
1.87866e-07
2.96411e-06
2.0363e-07
2.96066e-06
1.7074e-07
1.92839e-07
2.96628e-06
3.11244e-06
-1.70371e-09
3.11836e-06
8.45531e-09
3.11303e-06
1.62361e-09
3.10303e-06
-3.03785e-07
3.11435e-06
2.98031e-07
3.11294e-06
-4.6098e-09
3.11942e-06
7.36422e-08
3.11267e-06
-6.14851e-08
3.10866e-06
-2.01175e-07
3.09722e-06
-9.27515e-08
3.09696e-06
-6.04461e-08
3.09429e-06
2.23707e-08
3.09712e-06
1.4425e-07
3.09392e-06
1.05025e-07
3.10576e-06
2.48813e-07
3.10272e-06
1.99835e-07
3.10756e-06
1.83022e-07
3.10641e-06
2.04777e-07
3.10276e-06
1.74396e-07
1.87326e-07
3.10827e-06
3.26123e-06
9.72452e-10
3.26736e-06
2.32879e-09
3.26209e-06
6.89809e-09
3.25158e-06
-2.93279e-07
3.26353e-06
2.86077e-07
3.26128e-06
-2.35572e-09
3.2686e-06
6.6323e-08
3.26104e-06
-5.3922e-08
3.25742e-06
-1.97561e-07
3.24607e-06
-8.13962e-08
3.24502e-06
-5.94032e-08
3.24338e-06
2.40166e-08
3.24524e-06
1.42389e-07
3.24278e-06
1.07482e-07
3.25385e-06
2.37743e-07
3.25116e-06
2.02529e-07
3.25527e-06
1.78913e-07
3.25553e-06
2.04515e-07
3.25174e-06
1.78187e-07
1.82146e-07
3.25692e-06
3.41717e-06
3.73312e-09
3.42345e-06
-3.95457e-09
3.41833e-06
1.20211e-08
3.40722e-06
-2.82165e-07
3.41987e-06
2.73427e-07
3.41672e-06
7.89728e-10
3.42484e-06
5.82063e-08
3.41661e-06
-4.56944e-08
3.41315e-06
-1.94098e-07
3.40224e-06
-7.04876e-08
3.40008e-06
-5.72433e-08
3.39961e-06
2.44873e-08
3.40057e-06
1.41426e-07
3.39857e-06
1.09482e-07
3.40916e-06
2.27155e-07
3.40667e-06
2.05014e-07
3.40998e-06
1.75609e-07
3.41171e-06
2.02783e-07
3.40799e-06
1.81902e-07
1.77599e-07
3.41254e-06
3.58059e-06
6.55168e-09
3.58697e-06
-1.03295e-08
3.58212e-06
1.68681e-08
3.57028e-06
-2.70326e-07
3.58369e-06
2.60021e-07
3.57963e-06
4.8424e-09
3.58845e-06
4.939e-08
3.57977e-06
-3.70169e-08
3.57617e-06
-1.90493e-07
3.56608e-06
-6.04036e-08
3.56253e-06
-5.36904e-08
3.56323e-06
2.37868e-08
3.56353e-06
1.41126e-07
3.56159e-06
1.11423e-07
3.57195e-06
2.16794e-07
3.56973e-06
2.07235e-07
3.57203e-06
1.7331e-07
3.57521e-06
1.99606e-07
3.57192e-06
1.85189e-07
1.74001e-07
3.57552e-06
3.75186e-06
9.39944e-09
3.75824e-06
-1.67163e-08
3.75382e-06
2.12931e-08
3.74113e-06
-2.57636e-07
3.75533e-06
2.45818e-07
3.7504e-06
9.77516e-09
3.75975e-06
4.00359e-08
3.75092e-06
-2.81781e-08
3.74684e-06
-1.86413e-07
3.73794e-06
-5.1508e-08
3.73283e-06
-4.85794e-08
3.73452e-06
2.21006e-08
3.73451e-06
1.41136e-07
3.73223e-06
1.13702e-07
3.74248e-06
2.06538e-07
3.74073e-06
2.08985e-07
3.74187e-06
1.72168e-07
3.74627e-06
1.95207e-07
3.74387e-06
1.87595e-07
1.71577e-07
3.74629e-06
3.93134e-06
1.22454e-08
3.93764e-06
-2.30191e-08
3.93381e-06
2.513e-08
3.92015e-06
-2.43976e-07
3.93516e-06
2.30805e-07
3.92943e-06
1.55056e-08
3.93909e-06
3.03753e-08
3.93044e-06
-1.95239e-08
3.92554e-06
-1.81521e-07
3.91814e-06
-4.40997e-08
3.91145e-06
-4.18966e-08
3.91377e-06
1.97803e-08
3.91384e-06
1.41065e-07
3.91093e-06
1.16621e-07
3.92102e-06
1.96445e-07
3.92002e-06
2.09987e-07
3.92002e-06
1.72169e-07
3.9252e-06
1.90019e-07
3.92414e-06
1.88662e-07
1.70335e-07
3.92538e-06
4.11944e-06
1.50551e-08
4.12555e-06
-2.91242e-08
4.12248e-06
2.82005e-08
4.10774e-06
-2.29244e-07
4.12353e-06
2.1502e-07
4.11715e-06
2.18803e-08
4.12682e-06
2.07096e-08
4.11874e-06
-1.14449e-08
4.11273e-06
-1.75507e-07
4.10695e-06
-3.83216e-08
4.09889e-06
-3.38352e-08
4.10137e-06
1.72972e-08
4.10188e-06
1.40557e-07
4.09817e-06
1.20328e-07
4.1079e-06
1.86714e-07
4.10792e-06
2.09967e-07
4.10693e-06
1.73159e-07
4.11241e-06
1.8454e-07
4.11297e-06
1.88103e-07
1.70001e-07
4.1133e-06
4.31657e-06
1.77889e-08
4.32234e-06
-3.49007e-08
4.32022e-06
3.03261e-08
4.30436e-06
-2.13385e-07
4.32081e-06
1.98568e-07
4.31402e-06
2.86712e-08
4.32334e-06
1.1395e-08
4.31623e-06
-4.34118e-09
4.30886e-06
-1.68138e-07
4.30467e-06
-3.41281e-08
4.29559e-06
-2.47529e-08
4.29775e-06
1.51376e-08
4.29891e-06
1.39392e-07
4.29444e-06
1.24797e-07
4.30352e-06
1.77633e-07
4.30481e-06
2.08681e-07
4.30308e-06
1.74886e-07
4.30838e-06
1.79245e-07
4.31062e-06
1.8586e-07
1.7007e-07
4.31055e-06
4.52316e-06
2.04015e-08
4.52846e-06
-4.02005e-08
4.52745e-06
3.13414e-08
4.51047e-06
-1.96413e-07
4.52741e-06
1.81636e-07
4.52049e-06
3.55832e-08
4.52907e-06
2.82255e-09
4.52331e-06
1.41521e-09
4.51446e-06
-1.59291e-07
4.51162e-06
-3.12837e-08
4.50198e-06
-1.51133e-08
4.50336e-06
1.37615e-08
4.50525e-06
1.37492e-07
4.50019e-06
1.29861e-07
4.50834e-06
1.6948e-07
4.51106e-06
2.05966e-07
4.50892e-06
1.7702e-07
4.51367e-06
1.74496e-07
4.51739e-06
1.8214e-07
1.69921e-07
4.51754e-06
4.73967e-06
2.28415e-08
4.74434e-06
-4.48636e-08
4.74456e-06
3.11157e-08
4.72659e-06
-1.78444e-07
4.74373e-06
1.64497e-07
4.73704e-06
4.22764e-08
4.74448e-06
-4.61559e-09
4.74035e-06
5.5466e-09
4.73007e-06
-1.49018e-07
4.72818e-06
-2.93933e-08
4.71845e-06
-5.37834e-09
4.71869e-06
1.35181e-08
4.72125e-06
1.34936e-07
4.71584e-06
1.35266e-07
4.7229e-06
1.62424e-07
4.72704e-06
2.01822e-07
4.72492e-06
1.79142e-07
4.72887e-06
1.70547e-07
4.73365e-06
1.77364e-07
1.68972e-07
4.7346e-06
4.96659e-06
2.50536e-08
4.97045e-06
-4.87235e-08
4.97199e-06
2.95694e-08
4.95326e-06
-1.5971e-07
4.97026e-06
1.47498e-07
4.96413e-06
4.84009e-08
4.97008e-06
-1.0565e-08
4.9677e-06
7.92503e-09
4.95623e-06
-1.3754e-07
4.95483e-06
-2.8e-08
4.94535e-06
4.10719e-09
4.94423e-06
1.46352e-08
4.94729e-06
1.31872e-07
4.94191e-06
1.40652e-07
4.94778e-06
1.56555e-07
4.95322e-06
1.96382e-07
4.95151e-06
1.80842e-07
4.95456e-06
1.67497e-07
4.95989e-06
1.72038e-07
1.6687e-07
4.96199e-06
5.20439e-06
2.69797e-08
5.20728e-06
-5.16135e-08
5.21017e-06
2.6681e-08
5.19101e-06
-1.40548e-07
5.20748e-06
1.31027e-07
5.20224e-06
5.36344e-08
5.20646e-06
-1.47773e-08
5.20571e-06
8.67447e-09
5.19341e-06
-1.25242e-07
5.19207e-06
-2.66558e-08
5.18301e-06
1.31597e-08
5.18044e-06
1.72074e-08
5.18385e-06
1.28464e-07
5.17892e-06
1.45579e-07
5.18357e-06
1.51912e-07
5.19008e-06
1.89871e-07
5.18911e-06
1.81806e-07
5.19132e-06
1.65285e-07
5.19671e-06
1.66653e-07
1.63572e-07
5.20001e-06
5.45361e-06
2.85618e-08
5.45537e-06
-5.33807e-08
5.45957e-06
2.24877e-08
5.4404e-06
-1.21383e-07
5.45595e-06
1.15479e-07
5.45185e-06
5.7736e-08
5.45422e-06
-1.71503e-08
5.45476e-06
8.13904e-09
5.44209e-06
-1.12576e-07
5.44039e-06
-2.49591e-08
5.43184e-06
2.17127e-08
5.42785e-06
2.11941e-08
5.43153e-06
1.24787e-07
5.42744e-06
1.49673e-07
5.43088e-06
1.48466e-07
5.43814e-06
1.8261e-07
5.43817e-06
1.81782e-07
5.4397e-06
1.63753e-07
5.44479e-06
1.61559e-07
1.59349e-07
5.44901e-06
5.71478e-06
2.97441e-08
5.7153e-06
-5.39012e-08
5.72071e-06
1.70712e-08
5.702e-06
-1.02675e-07
5.71629e-06
1.01199e-07
5.71341e-06
6.06081e-08
5.71398e-06
-1.77215e-08
5.71537e-06
6.7553e-09
5.70267e-06
-9.9882e-08
5.70027e-06
-2.25542e-08
5.69225e-06
2.97313e-08
5.68714e-06
2.63067e-08
5.69101e-06
1.20917e-07
5.68796e-06
1.52718e-07
5.69031e-06
1.4612e-07
5.69799e-06
1.74927e-07
5.69915e-06
1.80627e-07
5.7002e-06
1.62698e-07
5.70483e-06
1.56935e-07
1.54625e-07
5.70955e-06
5.98846e-06
3.0474e-08
5.98766e-06
-5.30952e-08
5.99416e-06
1.05643e-08
5.97636e-06
-8.48767e-08
5.98913e-06
8.84372e-08
5.98745e-06
6.2282e-08
5.98631e-06
-1.65805e-08
5.98812e-06
4.95016e-09
5.97554e-06
-8.73091e-08
5.97212e-06
-1.91292e-08
5.96474e-06
3.71077e-08
5.95895e-06
3.21021e-08
5.96297e-06
1.16892e-07
5.96106e-06
1.54632e-07
5.96245e-06
1.44732e-07
5.97019e-06
1.67182e-07
5.97258e-06
1.78232e-07
5.97338e-06
1.61906e-07
5.97747e-06
1.52838e-07
1.49767e-07
5.98233e-06
6.27526e-06
3.07057e-08
6.2731e-06
-5.09364e-08
6.28051e-06
3.14947e-09
6.26395e-06
-6.83175e-08
6.27509e-06
7.7305e-08
6.27458e-06
6.27905e-08
6.27182e-06
-1.38216e-08
6.27354e-06
3.23106e-09
6.26122e-06
-7.49934e-08
6.25656e-06
-1.44639e-08
6.24993e-06
4.37304e-08
6.24398e-06
3.80567e-08
6.24806e-06
1.12808e-07
6.24732e-06
1.55379e-07
6.2479e-06
1.44146e-07
6.25536e-06
1.59723e-07
6.25903e-06
1.74568e-07
6.25979e-06
1.61144e-07
6.26333e-06
1.49293e-07
1.44993e-07
6.26811e-06
6.57577e-06
3.04016e-08
6.57228e-06
-4.74392e-08
6.58039e-06
-4.96374e-09
6.5653e-06
-5.32323e-08
6.57478e-06
6.78244e-08
6.57545e-06
6.21234e-08
6.57116e-06
-9.53123e-09
6.57231e-06
2.08284e-09
6.56046e-06
-6.31457e-08
6.55472e-06
-8.71738e-09
6.54877e-06
4.96806e-08
6.54291e-06
4.39138e-08
6.54691e-06
1.08807e-07
6.54737e-06
1.54921e-07
6.54734e-06
1.44175e-07
6.55416e-06
1.52904e-07
6.55904e-06
1.69685e-07
6.56005e-06
1.6013e-07
6.56303e-06
1.46311e-07
1.40403e-07
6.56762e-06
6.89066e-06
2.95366e-08
6.88588e-06
-4.26607e-08
6.89444e-06
-1.35282e-08
6.88104e-06
-3.98295e-08
6.88887e-06
5.99919e-08
6.89077e-06
6.02215e-08
6.88513e-06
-3.89039e-09
6.88517e-06
2.04778e-09
6.87412e-06
-5.20991e-08
6.86772e-06
-2.32029e-09
6.86215e-06
5.52519e-08
6.85635e-06
4.97117e-08
6.86019e-06
1.04975e-07
6.86182e-06
1.53293e-07
6.8614e-06
1.44589e-07
6.86732e-06
1.46987e-07
6.87321e-06
1.63791e-07
6.87478e-06
1.58566e-07
6.87724e-06
1.43848e-07
1.36077e-07
6.88157e-06
7.22057e-06
2.81012e-08
7.21461e-06
-3.66992e-08
7.22334e-06
-2.2259e-08
7.21181e-06
-2.82963e-08
7.21802e-06
5.37788e-08
7.22116e-06
5.7087e-08
7.21453e-06
2.73138e-09
7.21293e-06
3.65209e-09
7.20277e-06
-4.19381e-08
7.19622e-06
4.22964e-09
7.19081e-06
6.0657e-08
7.185e-06
5.55203e-08
7.18857e-06
1.01408e-07
7.19129e-06
1.50578e-07
7.19079e-06
1.45083e-07
7.19568e-06
1.42102e-07
7.20218e-06
1.57285e-07
7.20458e-06
1.56169e-07
7.20667e-06
1.41759e-07
1.32106e-07
7.21064e-06
7.56622e-06
2.61097e-08
7.55922e-06
-2.97033e-08
7.56777e-06
-3.08116e-08
7.55832e-06
-1.88412e-08
7.56286e-06
4.92393e-08
7.56717e-06
5.27773e-08
7.56016e-06
9.73608e-09
7.55649e-06
7.32977e-09
7.54703e-06
-3.24854e-08
7.54075e-06
1.05088e-08
7.53554e-06
6.58698e-08
7.52961e-06
6.14518e-08
7.53274e-06
9.8276e-08
7.53646e-06
1.46864e-07
7.53622e-06
1.4532e-07
7.54001e-06
1.38308e-07
7.54672e-06
1.5058e-07
7.55007e-06
1.52818e-07
7.55203e-06
1.39803e-07
1.28553e-07
7.55558e-06
7.92832e-06
2.36012e-08
7.92049e-06
-2.18724e-08
7.92847e-06
-3.87908e-08
7.92129e-06
-1.16666e-08
7.92405e-06
4.64805e-08
7.92924e-06
4.75862e-08
7.92271e-06
1.62693e-08
7.91688e-06
1.31579e-08
7.90754e-06
-2.31402e-08
7.9019e-06
1.61488e-08
7.8971e-06
7.06676e-08
7.89098e-06
6.75702e-08
7.89347e-06
9.57863e-08
7.89805e-06
1.42289e-07
7.89835e-06
1.45018e-07
7.90119e-06
1.35465e-07
7.90768e-06
1.44089e-07
7.91193e-06
1.48572e-07
7.91403e-06
1.377e-07
1.25408e-07
7.91717e-06
8.30764e-06
2.06438e-08
8.29922e-06
-1.34543e-08
8.30623e-06
-4.57974e-08
8.3014e-06
-6.84281e-09
8.30237e-06
4.55162e-08
8.3079e-06
4.20536e-08
8.30265e-06
2.15177e-08
8.29499e-06
2.08244e-08
8.28516e-06
-1.33177e-08
8.28027e-06
2.10459e-08
8.27621e-06
7.47269e-08
8.27e-06
7.37799e-08
8.27163e-06
9.41561e-08
8.2768e-06
1.37119e-07
8.27788e-06
1.43939e-07
8.28001e-06
1.33335e-07
8.28598e-06
1.38113e-07
8.29092e-06
1.43633e-07
8.29339e-06
1.35227e-07
1.22561e-07
8.29624e-06
8.70497e-06
1.73378e-08
8.69627e-06
-4.75523e-09
8.70188e-06
-5.14053e-08
8.69934e-06
-4.3092e-09
8.69855e-06
4.6311e-08
8.7037e-06
3.68978e-08
8.70026e-06
2.49572e-08
8.69151e-06
2.9579e-08
8.68092e-06
-2.73203e-09
8.67661e-06
2.53635e-08
8.67356e-06
7.77734e-08
8.66751e-06
7.98256e-08
8.66813e-06
9.3538e-08
8.67356e-06
1.31694e-07
8.67556e-06
1.41934e-07
8.67726e-06
1.31641e-07
8.68256e-06
1.32807e-07
8.68793e-06
1.38268e-07
8.69087e-06
1.32283e-07
1.19838e-07
8.69359e-06
9.12114e-06
1.38182e-08
9.11254e-06
3.8418e-09
9.11626e-06
-5.51256e-08
9.11598e-06
-4.0315e-09
9.11338e-06
4.8913e-08
9.11723e-06
3.3049e-08
9.11565e-06
2.65392e-08
9.10713e-06
3.81009e-08
9.09588e-06
8.51059e-09
9.09179e-06
2.94621e-08
9.0899e-06
7.96615e-08
9.08436e-06
8.53646e-08
9.08397e-06
9.393e-08
9.08926e-06
1.26397e-07
9.09217e-06
1.39024e-07
9.09376e-06
1.30053e-07
9.09834e-06
1.28227e-07
9.10389e-06
1.32724e-07
9.10728e-06
1.28885e-07
1.17078e-07
9.11004e-06
9.55703e-06
1.02531e-08
9.54899e-06
1.18772e-08
9.55032e-06
-5.64591e-08
9.55219e-06
-5.8952e-09
9.54827e-06
5.2828e-08
9.54928e-06
3.20427e-08
9.54952e-06
2.62971e-08
9.54263e-06
4.49899e-08
9.53115e-06
1.99937e-08
9.52679e-06
3.38194e-08
9.52599e-06
8.04592e-08
9.52133e-06
9.00274e-08
9.52013e-06
9.51313e-08
9.52492e-06
1.21606e-07
9.52858e-06
1.35363e-07
9.53035e-06
1.28285e-07
9.53426e-06
1.24315e-07
9.53977e-06
1.2721e-07
9.54356e-06
1.25097e-07
1.142e-07
9.54644e-06
1.00136e-05
6.82181e-09
1.00065e-05
1.89185e-08
1.00052e-05
-5.51352e-08
1.00088e-05
-9.48802e-09
1.00047e-05
5.69661e-08
1.00023e-05
3.44256e-08
1.00036e-05
2.49736e-08
9.99905e-06
4.95391e-08
9.98776e-06
3.12788e-08
9.98274e-06
3.88434e-08
9.98271e-06
8.04855e-08
9.97924e-06
9.34963e-08
9.97755e-06
9.68248e-08
9.98159e-06
1.17566e-07
9.98576e-06
1.31191e-07
9.98788e-06
1.26169e-07
9.99127e-06
1.20921e-07
9.99659e-06
1.21893e-07
1.00007e-05
1.20984e-07
1.11208e-07
1.00037e-05
1.04918e-05
3.70788e-09
1.04861e-05
2.45892e-08
1.04821e-05
-5.116e-08
1.04867e-05
-1.41262e-08
1.04836e-05
6.0088e-08
1.04783e-05
3.9749e-08
1.04793e-05
2.39821e-08
1.04772e-05
5.16281e-08
1.04667e-05
4.17334e-08
1.04608e-05
4.4804e-08
1.04611e-05
8.02085e-08
1.04589e-05
9.56318e-08
1.04571e-05
9.86079e-08
1.04604e-05
1.14304e-07
1.04647e-05
1.26849e-07
1.04673e-05
1.23612e-07
1.04703e-05
1.17882e-07
1.04753e-05
1.16891e-07
1.04797e-05
1.16599e-07
1.08111e-07
1.04828e-05
1.09926e-05
1.07775e-09
1.09886e-05
2.86505e-08
1.09822e-05
-4.47868e-08
1.09872e-05
-1.90665e-08
1.0986e-05
6.12915e-08
1.09785e-05
4.72386e-08
1.09779e-05
2.45916e-08
1.09779e-05
5.15401e-08
1.0969e-05
5.06748e-08
1.09622e-05
5.16068e-08
1.09622e-05
8.01774e-08
1.09613e-05
9.65818e-08
1.09599e-05
1.00024e-07
1.09624e-05
1.11738e-07
1.09667e-05
1.22598e-07
1.09697e-05
1.20629e-07
1.09725e-05
1.15032e-07
1.09771e-05
1.12283e-07
1.09817e-05
1.1203e-07
1.04874e-07
1.09849e-05
1.15174e-05
-9.28535e-10
1.1515e-05
3.10147e-08
1.15067e-05
-3.65165e-08
1.15111e-05
-2.33911e-08
1.15123e-05
6.00444e-08
1.15037e-05
5.58129e-08
1.15007e-05
2.75927e-08
1.15022e-05
5.00896e-08
1.14954e-05
5.74988e-08
1.14882e-05
5.88068e-08
1.14875e-05
8.08709e-08
1.14874e-05
9.66629e-08
1.14866e-05
1.00787e-07
1.14887e-05
1.09637e-07
1.14927e-05
1.18596e-07
1.1496e-05
1.1734e-07
1.14988e-05
1.12213e-07
1.1503e-05
1.08104e-07
1.15076e-05
1.07396e-07
1.01442e-07
1.15111e-05
1.20671e-05
-2.21522e-09
1.20664e-05
3.175e-08
1.20569e-05
-2.70203e-08
1.20596e-05
-2.61466e-08
1.20634e-05
5.6235e-08
1.2055e-05
6.43008e-08
1.20494e-05
3.31466e-08
1.20511e-05
4.84255e-08
1.20467e-05
6.18907e-08
1.20397e-05
6.57297e-08
1.20381e-05
8.24714e-08
1.20385e-05
9.63265e-08
1.20384e-05
1.00866e-07
1.20404e-05
1.0765e-07
1.20441e-05
1.14924e-07
1.20475e-05
1.13879e-07
1.20504e-05
1.09313e-07
1.20542e-05
1.04322e-07
1.20588e-05
1.02845e-07
9.78068e-08
1.20624e-05
1.26431e-05
-2.74411e-09
1.26438e-05
3.10644e-08
1.26337e-05
-1.69601e-08
1.26342e-05
-2.65812e-08
1.26401e-05
5.02748e-08
1.2633e-05
7.14691e-08
1.26252e-05
4.08889e-08
1.26259e-05
4.77288e-08
1.26239e-05
6.39457e-08
1.2618e-05
7.15978e-08
1.26156e-05
8.48391e-08
1.26159e-05
9.6068e-08
1.26164e-05
1.0038e-07
1.26185e-05
1.05565e-07
1.26219e-05
1.11479e-07
1.26254e-05
1.1036e-07
1.26284e-05
1.06306e-07
1.26319e-05
1.00836e-07
1.26363e-05
9.84993e-08
9.40153e-08
1.26401e-05
1.32467e-05
-2.53409e-09
1.32486e-05
2.9207e-08
1.32385e-05
-6.88544e-09
1.32361e-05
-2.41949e-08
1.32435e-05
4.29304e-08
1.32386e-05
7.63276e-08
1.32295e-05
4.99771e-08
1.32284e-05
4.88088e-08
1.3228e-05
6.43476e-08
1.32239e-05
7.57609e-08
1.32212e-05
8.75537e-08
1.32211e-05
9.61513e-08
1.32219e-05
9.95777e-08
1.32241e-05
1.0334e-07
1.32275e-05
1.08083e-07
1.3231e-05
1.06859e-07
1.32341e-05
1.03215e-07
1.32374e-05
9.75413e-08
1.32415e-05
9.44174e-08
9.01399e-08
1.32453e-05
1.38793e-05
-1.66923e-09
1.38819e-05
2.66094e-08
1.38724e-05
2.60616e-09
1.38671e-05
-1.88708e-08
1.38747e-05
3.53101e-08
1.38728e-05
7.82492e-08
1.38634e-05
5.93389e-08
1.38603e-05
5.19332e-08
1.38606e-05
6.40691e-08
1.38583e-05
7.79992e-08
1.38559e-05
8.99722e-08
1.38555e-05
9.65964e-08
1.38563e-05
9.8785e-08
1.38586e-05
1.01005e-07
1.3862e-05
1.04677e-07
1.38655e-05
1.03318e-07
1.38687e-05
1.00047e-07
1.38719e-05
9.43689e-08
1.38757e-05
9.0604e-08
8.62526e-08
1.38796e-05
1.45423e-05
-2.99195e-10
1.4545e-05
2.39363e-08
1.45367e-05
1.09101e-08
1.45289e-05
-1.11232e-08
1.45355e-05
2.87669e-08
1.45366e-05
7.70928e-08
1.45281e-05
6.78448e-08
1.45232e-05
5.68814e-08
1.45231e-05
6.41396e-08
1.45226e-05
7.85253e-08
1.45211e-05
9.14492e-08
1.45205e-05
9.72328e-08
1.45211e-05
9.81614e-08
1.45234e-05
9.86945e-08
1.45268e-05
1.0131e-07
1.45304e-05
9.97028e-08
1.45337e-05
9.67605e-08
1.45368e-05
9.12693e-08
1.45403e-05
8.70484e-08
8.24046e-08
1.45442e-05
1.52372e-05
1.3854e-09
1.52394e-05
2.17005e-08
1.52327e-05
1.76009e-08
1.52234e-05
-1.74528e-09
1.52277e-05
2.44204e-08
1.52314e-05
7.3366e-08
1.52248e-05
7.45138e-08
1.52185e-05
6.31019e-08
1.52174e-05
6.52606e-08
1.5218e-05
7.79318e-08
1.52178e-05
9.16818e-08
1.52174e-05
9.76515e-08
1.52178e-05
9.77019e-08
1.522e-05
9.65671e-08
1.52232e-05
9.80194e-08
1.52269e-05
9.60805e-08
1.52303e-05
9.33076e-08
1.52335e-05
8.81387e-08
1.52368e-05
8.37401e-08
7.86577e-08
1.52405e-05
1.59655e-05
3.18217e-09
1.5967e-05
2.02675e-08
1.5962e-05
2.25454e-08
1.5952e-05
8.27365e-09
1.59535e-05
2.28756e-08
1.59588e-05
6.81209e-08
1.59546e-05
7.87365e-08
1.59479e-05
6.98012e-08
1.59455e-05
6.76328e-08
1.59464e-05
7.70557e-08
1.59473e-05
9.07396e-08
1.59476e-05
9.73662e-08
1.5948e-05
9.73345e-08
1.59499e-05
9.4666e-08
1.5953e-05
9.48646e-08
1.59566e-05
9.25331e-08
1.59601e-05
8.97399e-08
1.59634e-05
8.4855e-08
1.59666e-05
8.06073e-08
7.50807e-08
1.59701e-05
1.67289e-05
4.91024e-09
1.67293e-05
1.98719e-08
1.67259e-05
2.58778e-08
1.67163e-05
1.7952e-08
1.6715e-05
2.41455e-08
1.67204e-05
6.26631e-08
1.67188e-05
8.0402e-08
1.67125e-05
7.60522e-08
1.67091e-05
7.1096e-08
1.67095e-05
7.66488e-08
1.67113e-05
8.89244e-08
1.67125e-05
9.61593e-08
1.67131e-05
9.67699e-08
1.67148e-05
9.29747e-08
1.67177e-05
9.19158e-08
1.67211e-05
8.90844e-08
1.67247e-05
8.61891e-08
1.67282e-05
8.13915e-08
1.67313e-05
7.75092e-08
7.17174e-08
1.67346e-05
1.75288e-05
6.42863e-09
1.75283e-05
2.04567e-08
1.75262e-05
2.79423e-08
1.75175e-05
2.66114e-08
1.75139e-05
2.77685e-08
1.75183e-05
5.823e-08
1.75189e-05
7.98279e-08
1.75139e-05
8.10323e-08
1.75097e-05
7.52873e-08
1.75094e-05
7.70307e-08
1.75115e-05
8.68225e-08
1.75135e-05
9.41136e-08
1.75146e-05
9.56355e-08
1.75162e-05
9.14408e-08
1.75189e-05
8.91545e-08
1.75223e-05
8.57483e-08
1.75257e-05
8.274e-08
1.75293e-05
7.78339e-08
1.75325e-05
7.43141e-08
6.85424e-08
1.75357e-05
1.83671e-05
7.66645e-09
1.83656e-05
2.19294e-08
1.83644e-05
2.91849e-08
1.83573e-05
3.37287e-08
1.8352e-05
3.29986e-08
1.83547e-05
5.56168e-08
1.83567e-05
7.77643e-08
1.83535e-05
8.42994e-08
1.83491e-05
7.95956e-08
1.8348e-05
7.8177e-08
1.83498e-05
8.50174e-08
1.83524e-05
9.14823e-08
1.83543e-05
9.37983e-08
1.83559e-05
8.9827e-08
1.83584e-05
8.661e-08
1.83617e-05
8.25081e-08
1.8365e-05
7.94106e-08
1.83685e-05
7.43026e-08
1.83719e-05
7.09818e-08
6.54669e-08
1.83749e-05
1.92454e-05
8.62611e-09
1.92433e-05
2.40373e-08
1.92424e-05
3.01558e-08
1.92369e-05
3.91467e-08
1.9231e-05
3.88969e-08
1.92316e-05
5.50187e-08
1.92342e-05
7.51787e-08
1.92327e-05
8.58537e-08
1.92289e-05
8.33377e-08
1.92272e-05
7.9937e-08
1.92284e-05