/*--------------------------------*- C++ -*----------------------------------*\
| =========                 |                                                 |
| \\      /  F ield         | OpenFOAM: The Open Source CFD Toolbox           |
|  \\    /   O peration     | Version:  3.0.1                                 |
|   \\  /    A nd           | Web:      www.OpenFOAM.org                      |
|    \\/     M anipulation  |                                                 |
\*---------------------------------------------------------------------------*/
FoamFile
{
    version     2.0;
    format      ascii;
    class       volVectorField;
    location    "1.5";
    object      U;
}
// * * * * * * * * * * * * * * * * * * * * * * * * * * * * * * * * * * * * * //

dimensions      [0 1 -1 0 0 0 0];

internalField   nonuniform List<vector> 
9600
(
(0.864186 -0.000267734 0)
(1.13919 0.000399591 0)
(0.859073 -0.000704456 0)
(1.12246 -0.00407866 0)
(0.912321 0.00559178 0)
(1.11432 -0.00356807 0)
(0.816161 0.0035574 0)
(1.14915 0.000214357 0)
(0.850841 -0.00685952 0)
(1.12401 -0.00130603 0)
(0.915765 -0.0021635 0)
(1.09862 -0.000175441 0)
(0.917795 0.00453559 0)
(1.08817 -0.00065164 0)
(0.8977 0.0152773 0)
(1.08743 0.00119625 0)
(0.868677 0.0132513 0)
(1.08639 -0.00136091 0)
(0.835008 0.00880244 0)
(1.08598 0.0015697 0)
(0.874462 -0.000377233 0)
(1.12739 0.000631578 0)
(0.872756 -0.000724545 0)
(1.11009 -0.00434334 0)
(0.921976 0.00540096 0)
(1.09941 -0.00233137 0)
(0.835633 0.00299933 0)
(1.12509 1.07912e-05 0)
(0.877304 -0.00676295 0)
(1.10152 -0.00210676 0)
(0.938377 -0.0020489 0)
(1.07725 4.00894e-05 0)
(0.944193 0.00448666 0)
(1.05872 0.00015564 0)
(0.933959 0.0149446 0)
(1.04076 0.00238879 0)
(0.928314 0.0132947 0)
(1.01307 -0.000711721 0)
(0.932973 0.0100013 0)
(0.973216 0.00207902 0)
(0.893784 -0.000445281 0)
(1.10531 0.000764449 0)
(0.897049 -0.000759488 0)
(1.08804 -0.00460842 0)
(0.940181 0.00539466 0)
(1.07545 -0.00136357 0)
(0.871527 0.0024828 0)
(1.08817 -0.000275167 0)
(0.918162 -0.00669118 0)
(1.06577 -0.00271891 0)
(0.969601 -0.00178486 0)
(1.04678 3.14685e-05 0)
(0.976195 0.00471295 0)
(1.02635 0.000403976 0)
(0.969498 0.0151466 0)
(1.00972 0.00256545 0)
(0.968386 0.0133615 0)
(0.98982 -0.000333394 0)
(0.97095 0.0099643 0)
(0.972223 0.00278053 0)
(0.918657 -0.000475028 0)
(1.07724 0.000824238 0)
(0.926093 -0.000747737 0)
(1.06144 -0.00482941 0)
(0.961516 0.00543649 0)
(1.04906 -0.000690846 0)
(0.912874 0.00226931 0)
(1.05158 -0.00069157 0)
(0.956623 -0.00652909 0)
(1.03299 -0.00325374 0)
(0.992878 -0.00160366 0)
(1.0241 -3.79472e-05 0)
(0.99557 0.00500982 0)
(1.00851 0.000607195 0)
(0.987261 0.0153913 0)
(1.00036 0.00266036 0)
(0.984721 0.0137247 0)
(0.990294 -0.000286672 0)
(0.982534 0.0102637 0)
(0.9828 0.00344418 0)
(0.944373 -0.000469179 0)
(1.04902 0.000831401 0)
(0.953463 -0.000708243 0)
(1.03645 -0.00502607 0)
(0.979937 0.00547902 0)
(1.02632 -0.00021963 0)
(0.948671 0.00222366 0)
(1.02497 -0.00112616 0)
(0.981996 -0.00636245 0)
(1.01235 -0.00364686 0)
(1.00341 -0.00155849 0)
(1.01262 -4.97828e-05 0)
(1.00311 0.00523481 0)
(1.00246 0.000865192 0)
(0.994151 0.0154235 0)
(0.999867 0.00288426 0)
(0.9917 0.0137225 0)
(0.994024 5.51587e-05 0)
(0.988164 0.0104079 0)
(0.988431 0.00428844 0)
(0.966642 -0.000434426 0)
(1.02581 0.000803416 0)
(0.974766 -0.000668479 0)
(1.0175 -0.00517817 0)
(0.991985 0.00552923 0)
(1.01047 7.87979e-05 0)
(0.973666 0.00221756 0)
(1.01034 -0.00146047 0)
(0.994197 -0.00623896 0)
(1.00252 -0.00388256 0)
(1.00532 -0.00159726 0)
(1.00711 -4.88344e-05 0)
(1.00484 0.00538787 0)
(1.00134 0.00111203 0)
(0.997503 0.0153435 0)
(1.0019 0.00310758 0)
(0.996049 0.0135186 0)
(0.997492 0.000578157 0)
(0.992251 0.0102297 0)
(0.992083 0.00523528 0)
(0.98298 -0.000385373 0)
(1.01015 0.000762638 0)
(0.988742 -0.000639755 0)
(1.00576 -0.00526726 0)
(0.997683 0.00556969 0)
(1.00136 0.000237479 0)
(0.988404 0.00220176 0)
(1.00428 -0.001662 0)
(0.998342 -0.00613936 0)
(0.998346 -0.00401123 0)
(1.00352 -0.00166105 0)
(1.00327 -7.48054e-05 0)
(1.004 0.00546409 0)
(1.00113 0.00130243 0)
(0.999697 0.0151906 0)
(1.00393 0.00331169 0)
(0.99922 0.0132985 0)
(0.999996 0.00114414 0)
(0.995263 0.00995532 0)
(0.994699 0.00621586 0)
(0.993104 -0.000336509 0)
(1.00165 0.000724901 0)
(0.996543 -0.000623393 0)
(0.999764 -0.00529634 0)
(0.999167 0.00559115 0)
(0.997105 0.000300645 0)
(0.996018 0.00216009 0)
(1.00253 -0.00175787 0)
(0.999142 -0.00603275 0)
(0.996301 -0.00407796 0)
(1.00076 -0.00170996 0)
(0.999751 -0.000126615 0)
(1.00181 0.00546565 0)
(1.00024 0.00142819 0)
(1.00072 0.0149603 0)
(1.00479 0.00353023 0)
(1.00102 0.0130391 0)
(1.00124 0.00180021 0)
(0.997104 0.00965526 0)
(0.996331 0.00721232 0)
(0.998295 -0.000295903 0)
(0.9982 0.000694116 0)
(1.00023 -0.000613877 0)
(0.997239 -0.0052785 0)
(0.998764 0.00559701 0)
(0.995793 0.000302597 0)
(0.999537 0.00209508 0)
(1.00239 -0.00178716 0)
(0.999087 -0.00590503 0)
(0.995092 -0.00409794 0)
(0.998225 -0.00172699 0)
(0.996634 -0.00018657 0)
(0.999094 0.00541763 0)
(0.998504 0.00149881 0)
(1.00038 0.0146591 0)
(1.0043 0.00377115 0)
(1.00139 0.0127109 0)
(1.00137 0.0025243 0)
(0.997924 0.00931085 0)
(0.997149 0.0081609 0)
(1.00036 -0.000264997 0)
(0.997482 0.000667238 0)
(1.00164 -0.000602831 0)
(0.996359 -0.00522875 0)
(0.99793 0.00558768 0)
(0.996086 0.0002678 0)
(1.00094 0.00201979 0)
(1.00262 -0.00178176 0)
(0.999009 -0.00575552 0)
(0.994393 -0.00407595 0)
(0.996383 -0.00171168 0)
(0.994237 -0.000235342 0)
(0.996511 0.00534527 0)
(0.996429 0.00153833 0)
(0.999039 0.0142958 0)
(1.00294 0.00403281 0)
(1.00074 0.012311 0)
(1.00081 0.00328197 0)
(0.998105 0.00892107 0)
(0.997447 0.00901606 0)
(1.00082 -0.000241657 0)
(0.997874 0.000640445 0)
(1.00198 -0.0005843 0)
(0.996114 -0.00515972 0)
(0.997233 0.00555918 0)
(0.997126 0.000215214 0)
(1.00129 0.00194661 0)
(1.00281 -0.00176231 0)
(0.999032 -0.00558931 0)
(0.99404 -0.00401999 0)
(0.995277 -0.00166959 0)
(0.992681 -0.00026122 0)
(0.994482 0.00526253 0)
(0.99458 0.00157681 0)
(0.997351 0.0138782 0)
(1.00133 0.00431445 0)
(0.999689 0.0118426 0)
(1 0.0040501 0)
(0.998025 0.0085136 0)
(0.997495 0.00974199 0)
(1.00066 -0.000222998 0)
(0.998523 0.000611358 0)
(1.00192 -0.000556321 0)
(0.996081 -0.00507938 0)
(0.996761 0.0055083 0)
(0.998349 0.000157693 0)
(1.00116 0.00188241 0)
(1.00286 -0.00173931 0)
(0.999111 -0.005414 0)
(0.993873 -0.00393733 0)
(0.99474 -0.00161145 0)
(0.991868 -0.000260514 0)
(0.99314 0.00517533 0)
(0.993269 0.00163795 0)
(0.995857 0.0134157 0)
(0.999916 0.00461128 0)
(0.998689 0.0113144 0)
(0.999237 0.00481223 0)
(0.997924 0.00811777 0)
(0.997472 0.010314 0)
(1.00036 -0.000206716 0)
(0.999082 0.000578884 0)
(1.00175 -0.000519469 0)
(0.996117 -0.00499178 0)
(0.996466 0.00543521 0)
(0.999406 0.000102197 0)
(1.00086 0.00182916 0)
(1.00275 -0.00171673 0)
(0.999201 -0.00523565 0)
(0.993785 -0.00383291 0)
(0.994551 -0.00155017 0)
(0.991582 -0.000234888 0)
(0.9924 0.0050864 0)
(0.992534 0.00173192 0)
(0.99481 0.0129148 0)
(0.998893 0.00492358 0)
(0.997962 0.0107495 0)
(0.998646 0.00553487 0)
(0.997903 0.00777338 0)
(0.997468 0.0107164 0)
(1.00012 -0.000191298 0)
(0.999461 0.000542685 0)
(1.00161 -0.000475429 0)
(0.996181 -0.00489851 0)
(0.996302 0.00534317 0)
(1.00015 5.18025e-05 0)
(1.00056 0.0017854 0)
(1.00256 -0.00169502 0)
(0.99928 -0.00505779 0)
(0.993739 -0.00371077 0)
(0.994536 -0.00149474 0)
(0.991604 -0.000186851 0)
(0.992083 0.00499183 0)
(0.992252 0.00185722 0)
(0.99422 0.0123843 0)
(0.998244 0.00525042 0)
(0.997535 0.0101757 0)
(0.998241 0.00619307 0)
(0.997975 0.00751754 0)
(0.997516 0.0109501 0)
(0.999974 -0.000175719 0)
(0.999671 0.000502679 0)
(1.00152 -0.000426107 0)
(0.996253 -0.00480029 0)
(0.996239 0.00523659 0)
(1.00056 7.63095e-06 0)
(1.00035 0.00174699 0)
(1.00232 -0.00167155 0)
(0.999335 -0.00488505 0)
(0.993732 -0.00357057 0)
(0.994599 -0.00145188 0)
(0.991768 -0.000119398 0)
(0.992014 0.00488708 0)
(0.992256 0.00200734 0)
(0.993975 0.0118388 0)
(0.997871 0.00557852 0)
(0.99734 0.00962189 0)
(0.997985 0.00677204 0)
(0.99812 0.0073599 0)
(0.997622 0.0110281 0)
(0.999914 -0.0001593 0)
(0.999758 0.000459013 0)
(1.00146 -0.00037291 0)
(0.996328 -0.00469783 0)
(0.996255 0.00511973 0)
(1.00072 -3.01206e-05 0)
(1.00023 0.00170854 0)
(1.0021 -0.00164164 0)
(0.999365 -0.00472213 0)
(0.993764 -0.00341115 0)
(0.994695 -0.00142438 0)
(0.991981 -3.50906e-05 0)
(0.992066 0.00476617 0)
(0.992411 0.00218416 0)
(0.993947 0.0112831 0)
(0.997665 0.00589573 0)
(0.997296 0.00911037 0)
(0.997831 0.00726769 0)
(0.998307 0.00730185 0)
(0.997781 0.0109826 0)
(0.999908 -0.000141611 0)
(0.999774 0.000411738 0)
(1.00142 -0.000316831 0)
(0.996403 -0.00459158 0)
(0.996322 0.00499575 0)
(1.00073 -6.1228e-05 0)
(1.00017 0.00166526 0)
(1.00191 -0.00160096 0)
(0.999374 -0.00457152 0)
(0.993828 -0.00323357 0)
(0.994807 -0.00140968 0)
(0.992199 6.1451e-05 0)
(0.992164 0.00463307 0)
(0.992633 0.00237653 0)
(0.994034 0.0107237 0)
(0.997548 0.00618913 0)
(0.997335 0.00865903 0)
(0.997745 0.00767919 0)
(0.998505 0.00732745 0)
(0.997981 0.0108468 0)
(0.999928 -0.000122391 0)
(0.999759 0.00036099 0)
(1.00138 -0.000258785 0)
(0.996479 -0.00448155 0)
(0.996414 0.00486565 0)
(1.00067 -8.48456e-05 0)
(1.00013 0.00161383 0)
(1.00174 -0.00154854 0)
(0.99937 -0.00443312 0)
(0.993913 -0.00303753 0)
(0.994927 -0.00140551 0)
(0.992415 0.0001661 0)
(0.992273 0.00449667 0)
(0.992879 0.00256651 0)
(0.994174 0.0101842 0)
(0.997475 0.00644183 0)
(0.997411 0.00827287 0)
(0.997701 0.00800538 0)
(0.998695 0.00740261 0)
(0.998212 0.0106457 0)
(0.999953 -0.000101609 0)
(0.999739 0.000306909 0)
(1.00133 -0.000198715 0)
(0.996562 -0.0043682 0)
(0.996511 0.00473042 0)
(1.0006 -0.000100866 0)
(1.0001 0.00155231 0)
(1.0016 -0.00148307 0)
(0.999357 -0.00430813 0)
(0.994014 -0.00282402 0)
(0.995047 -0.00141056 0)
(0.992632 0.000275977 0)
(0.992378 0.00435778 0)
(0.993131 0.00274433 0)
(0.994333 0.00968095 0)
(0.99742 0.00665381 0)
(0.9975 0.00794648 0)
(0.997688 0.00825783 0)
(0.998862 0.00750854 0)
(0.998466 0.0104035 0)
(0.999971 -7.92457e-05 0)
(0.999729 0.000249365 0)
(1.00127 -0.000136684 0)
(0.996657 -0.00425104 0)
(0.9966 0.00458919 0)
(1.00053 -0.000107362 0)
(1.00007 0.00147777 0)
(1.00148 -0.00139999 0)
(0.999336 -0.00419987 0)
(0.994126 -0.00259758 0)
(0.995163 -0.00142201 0)
(0.992859 0.000384141 0)
(0.992478 0.00422527 0)
(0.993388 0.00290215 0)
(0.994496 0.00921363 0)
(0.997378 0.00682759 0)
(0.997591 0.00767201 0)
(0.997702 0.00845113 0)
(0.999001 0.00763845 0)
(0.998735 0.0101359 0)
(0.999975 -5.53871e-05 0)
(0.999738 0.00018867 0)
(1.00119 -7.37417e-05 0)
(0.996768 -0.00412929 0)
(0.996674 0.00444108 0)
(1.00049 -0.000103452 0)
(1.00002 0.0013895 0)
(1.00137 -0.00129902 0)
(0.999307 -0.0041068 0)
(0.99425 -0.00235939 0)
(0.995269 -0.00143063 0)
(0.993101 0.000482804 0)
(0.992571 0.00411258 0)
(0.993649 0.00302995 0)
(0.994661 0.00878663 0)
(0.997346 0.00696643 0)
(0.997682 0.00743004 0)
(0.997743 0.00859292 0)
(0.999112 0.00779036 0)
(0.999012 0.00985114 0)
(0.999963 -3.02277e-05 0)
(0.999768 0.000125022 0)
(1.0011 -1.01667e-05 0)
(0.996898 -0.00400267 0)
(0.996731 0.00428609 0)
(1.00047 -8.83556e-05 0)
(0.999966 0.00128788 0)
(1.00127 -0.00118149 0)
(0.99927 -0.00402418 0)
(0.994384 -0.00211437 0)
(0.995366 -0.00143168 0)
(0.993359 0.000561059 0)
(0.99266 0.00402986 0)
(0.993914 0.00312421 0)
(0.994831 0.00839346 0)
(0.997323 0.00708625 0)
(0.997775 0.00720838 0)
(0.997811 0.00868172 0)
(0.999196 0.0079639 0)
(0.999291 0.00955978 0)
(0.999937 -3.77669e-06 0)
(0.999818 5.85372e-05 0)
(1.00098 5.34298e-05 0)
(0.997043 -0.00387023 0)
(0.996774 0.00412266 0)
(1.00046 -5.98235e-05 0)
(0.999905 0.00117131 0)
(1.00118 -0.0010465 0)
(0.99923 -0.00395369 0)
(0.994526 -0.00186477 0)
(0.995454 -0.0014194 0)
(0.993631 0.000613326 0)
(0.99275 0.00397484 0)
(0.99418 0.0032017 0)
(0.995013 0.00802007 0)
(0.997307 0.00719468 0)
(0.997873 0.00701439 0)
(0.997909 0.0087074 0)
(0.99926 0.00815303 0)
(0.999561 0.00927649 0)
(0.999901 2.35581e-05 0)
(0.999882 -9.8664e-06 0)
(1.00086 0.000115676 0)
(0.997201 -0.00373062 0)
(0.996807 0.00394943 0)
(1.00046 -1.7535e-05 0)
(0.999844 0.00104031 0)
(1.00109 -0.000898002 0)
(0.99919 -0.00388838 0)
(0.994673 -0.00162167 0)
(0.995537 -0.00138039 0)
(0.993914 0.000635216 0)
(0.992845 0.00394672 0)
(0.99444 0.0032614 0)
(0.995214 0.00766141 0)
(0.997297 0.00729573 0)
(0.997976 0.00686063 0)
(0.998036 0.00866327 0)
(0.999309 0.00834676 0)
(0.999812 0.00901766 0)
(0.99986 5.17842e-05 0)
(0.999954 -8.01099e-05 0)
(1.00074 0.000175567 0)
(0.997362 -0.00358236 0)
(0.99684 0.00376553 0)
(1.00045 3.9228e-05 0)
(0.999789 0.000897171 0)
(1.001 -0.000742696 0)
(0.999157 -0.0038178 0)
(0.994823 -0.0013935 0)
(0.995617 -0.0013111 0)
(0.994204 0.000617924 0)
(0.992953 0.00393861 0)
(0.994686 0.00331498 0)
(0.995439 0.00730883 0)
(0.997293 0.0073853 0)
(0.99808 0.00674863 0)
(0.998188 0.00854733 0)
(0.999351 0.00852834 0)
(1.00003 0.00880376 0)
(0.999821 8.06145e-05 0)
(1.00002 -0.000151201 0)
(1.00062 0.000231565 0)
(0.99752 -0.00342415 0)
(0.99688 0.0035697 0)
(1.00044 0.000110988 0)
(0.999746 0.000744855 0)
(1.00091 -0.000582205 0)
(0.999134 -0.00374291 0)
(0.994972 -0.00118948 0)
(0.995698 -0.00120682 0)
(0.994497 0.000574472 0)
(0.993078 0.00394126 0)
(0.994915 0.00337744 0)
(0.995689 0.00695831 0)
(0.997297 0.00746317 0)
(0.998181 0.00668513 0)
(0.998364 0.00836967 0)
(0.999394 0.00867501 0)
(1.00022 0.00865032 0)
(0.999789 0.000109237 0)
(1.00009 -0.000221287 0)
(1.00051 0.000280263 0)
(0.997668 -0.00325356 0)
(0.996934 0.00336155 0)
(1.00041 0.000195692 0)
(0.999717 0.000584111 0)
(1.00081 -0.000418409 0)
(0.999121 -0.00365831 0)
(0.995122 -0.00101565 0)
(0.995782 -0.00106364 0)
(0.994791 0.000517493 0)
(0.993225 0.00394283 0)
(0.995123 0.00346042 0)
(0.995964 0.00661204 0)
(0.997317 0.00752177 0)
(0.998271 0.00667419 0)
(0.998558 0.0081504 0)
(0.999449 0.00876887 0)
(1.00036 0.00856818 0)
(0.999766 0.000137978 0)
(1.00014 -0.00029044 0)
(1.00042 0.000321509 0)
(0.997805 -0.00306865 0)
(0.997004 0.00314127 0)
(1.00037 0.000289005 0)
(0.999703 0.000421635 0)
(1.0007 -0.000264949 0)
(0.999119 -0.00355015 0)
(0.995274 -0.000873542 0)
(0.995869 -0.000887201 0)
(0.995084 0.000453006 0)
(0.993398 0.00393408 0)
(0.995311 0.00356895 0)
(0.996255 0.00627546 0)
(0.997357 0.00754213 0)
(0.998346 0.00670559 0)
(0.998765 0.00790416 0)
(0.999523 0.00878623 0)
(1.00045 0.00855515 0)
(0.999752 0.000166115 0)
(1.00018 -0.000356526 0)
(1.00034 0.000353317 0)
(0.997928 -0.00286878 0)
(0.997091 0.00291124 0)
(1.00031 0.00039001 0)
(0.9997 0.000262506 0)
(1.0006 -0.000127505 0)
(0.999125 -0.00341304 0)
(0.995431 -0.000772969 0)
(0.995958 -0.000683342 0)
(0.995377 0.000392595 0)
(0.993596 0.00390522 0)
(0.995481 0.00369368 0)
(0.996557 0.00595701 0)
(0.997426 0.00751799 0)
(0.998404 0.00677502 0)
(0.998974 0.00765705 0)
(0.999627 0.00871166 0)
(1.00051 0.00859507 0)
(0.999747 0.000193299 0)
(1.00022 -0.000418151 0)
(1.00028 0.00037234 0)
(0.998039 -0.00265438 0)
(0.997192 0.00267477 0)
(1.00026 0.00049642 0)
(0.999706 0.00011131 0)
(1.00049 -1.15965e-05 0)
(0.999135 -0.00324501 0)
(0.995595 -0.00070407 0)
(0.996049 -0.000461614 0)
(0.995668 0.000347896 0)
(0.993821 0.00385102 0)
(0.995637 0.00384151 0)
(0.996863 0.0056669 0)
(0.997528 0.00744262 0)
(0.998446 0.00687243 0)
(0.999176 0.0074395 0)
(0.999765 0.00854833 0)
(1.00055 0.00863866 0)
(0.999748 0.000218952 0)
(1.00024 -0.000473531 0)
(1.00023 0.000377029 0)
(0.99814 -0.00242601 0)
(0.997304 0.0024324 0)
(1.0002 0.000603734 0)
(0.999717 -2.55661e-05 0)
(1.00039 7.47945e-05 0)
(0.999147 -0.0030482 0)
(0.995767 -0.000654631 0)
(0.996142 -0.000234485 0)
(0.995956 0.000330747 0)
(0.994074 0.00377927 0)
(0.995785 0.00400483 0)
(0.997164 0.00541476 0)
(0.997668 0.00731524 0)
(0.998479 0.00697301 0)
(0.999358 0.00726083 0)
(0.999934 0.00831463 0)
(1.00059 0.00863255 0)
(0.999753 0.000242684 0)
(1.00027 -0.000520557 0)
(1.00019 0.000364933 0)
(0.998234 -0.00218648 0)
(0.997424 0.00218917 0)
(1.00014 0.000704895 0)
(0.999731 -0.000140432 0)
(1.0003 0.000130639 0)
(0.999162 -0.00282719 0)
(0.995947 -0.000622079 0)
(0.996237 -5.27308e-06 0)
(0.996238 0.000348449 0)
(0.994353 0.00369232 0)
(0.995927 0.00416806 0)
(0.997454 0.005205 0)
(0.997844 0.00713983 0)
(0.998511 0.00705861 0)
(0.999514 0.00712927 0)
(1.00013 0.00804949 0)
(1.00066 0.00854885 0)
(0.999759 0.000263535 0)
(1.00029 -0.000557586 0)
(1.00016 0.000337543 0)
(0.998322 -0.00193954 0)
(0.997547 0.00195078 0)
(1.00008 0.000792207 0)
(0.999746 -0.000224954 0)
(1.00022 0.00015528 0)
(0.999177 -0.00258945 0)
(0.996137 -0.000594282 0)
(0.996337 0.000215697 0)
(0.996513 0.000401147 0)
(0.994656 0.00359726 0)
(0.996069 0.00432576 0)
(0.997728 0.00503807 0)
(0.998053 0.00692305 0)
(0.998552 0.00711582 0)
(0.999641 0.00703865 0)
(1.00033 0.00778314 0)
(1.00077 0.00837915 0)
(0.999767 0.000281594 0)
(1.00031 -0.000583054 0)
(1.00014 0.000294723 0)
(0.998406 -0.0016885 0)
(0.997672 0.00172628 0)
(1.00003 0.00086182 0)
(0.99976 -0.00027581 0)
(1.00014 0.000154916 0)
(0.999195 -0.00234074 0)
(0.996335 -0.000561634 0)
(0.996443 0.000417412 0)
(0.99678 0.000485253 0)
(0.994982 0.00350004 0)
(0.996214 0.00446485 0)
(0.99798 0.00490948 0)
(0.998291 0.00666952 0)
(0.998611 0.00713366 0)
(0.999739 0.00697953 0)
(1.00052 0.0075429 0)
(1.00091 0.00815313 0)
(0.999776 0.000295581 0)
(1.00033 -0.000595207 0)
(1.00013 0.000236716 0)
(0.998488 -0.00144174 0)
(0.997798 0.00151879 0)
(0.999984 0.000916908 0)
(0.999772 -0.00029761 0)
(1.00009 0.000135125 0)
(0.999216 -0.0020904 0)
(0.996541 -0.000518258 0)
(0.996559 0.000603128 0)
(0.997039 0.000600965 0)
(0.995328 0.00340263 0)
(0.996363 0.00457866 0)
(0.998208 0.00481826 0)
(0.998552 0.00638993 0)
(0.998695 0.0071058 0)
(0.999816 0.0069374 0)
(1.0007 0.00733061 0)
(1.00108 0.00790218 0)
(0.999785 0.000305226 0)
(1.00035 -0.000592967 0)
(1.00013 0.000164634 0)
(0.998569 -0.00120552 0)
(0.997925 0.00132936 0)
(0.999944 0.000952628 0)
(0.999781 -0.000291514 0)
(1.00004 0.000105079 0)
(0.999242 -0.00184109 0)
(0.996754 -0.000457269 0)
(0.996685 0.000774108 0)
(0.99729 0.000739021 0)
(0.99569 0.00330264 0)
(0.996522 0.00466334 0)
(0.99841 0.00476095 0)
(0.998829 0.00610331 0)
(0.99881 0.0070354 0)
(0.999876 0.00690916 0)
(1.00086 0.00714176 0)
(1.00126 0.00765242 0)
(0.999795 0.000310413 0)
(1.00036 -0.000576212 0)
(1.00014 8.08804e-05 0)
(0.99865 -0.000982355 0)
(0.998049 0.00116143 0)
(0.999911 0.000967014 0)
(0.999788 -0.000255031 0)
(1 7.05194e-05 0)
(0.999274 -0.00159341 0)
(0.996972 -0.000370167 0)
(0.996823 0.000932112 0)
(0.997532 0.000883399 0)
(0.996065 0.00319736 0)
(0.996693 0.00471316 0)
(0.998585 0.00473144 0)
(0.999115 0.00582016 0)
(0.998962 0.00691571 0)
(0.999926 0.00689006 0)
(1.00099 0.00697442 0)
(1.00144 0.00741271 0)
(0.999805 0.000309397 0)
(1.00037 -0.000543416 0)
(1.00016 -1.31654e-05 0)
(0.99873 -0.000777475 0)
(0.998172 0.00101469 0)
(0.999887 0.000965456 0)
(0.999792 -0.000192387 0)
(0.999973 4.16014e-05 0)
(0.999315 -0.00135853 0)
(0.997195 -0.000252464 0)
(0.99697 0.00108193 0)
(0.997762 0.00103083 0)
(0.996451 0.00308302 0)
(0.996881 0.00472308 0)
(0.998734 0.00473102 0)
(0.9994 0.0055538 0)
(0.999152 0.00673846 0)
(0.999975 0.0068632 0)
(1.0011 0.00682941 0)
(1.00162 0.00717952 0)
(0.999815 0.000303974 0)
(1.00038 -0.000497748 0)
(1.00019 -0.000114696 0)
(0.998813 -0.000593856 0)
(0.998291 0.000892597 0)
(0.999872 0.000946093 0)
(0.999796 -0.000108496 0)
(0.999954 3.06133e-05 0)
(0.999366 -0.00113932 0)
(0.997422 -0.00011679 0)
(0.997126 0.00122512 0)
(0.99798 0.00117871 0)
(0.996842 0.00296389 0)
(0.997092 0.00469057 0)
(0.998863 0.00475254 0)
(0.999675 0.00532062 0)
(0.99938 0.00651373 0)
(1.00003 0.00681691 0)
(1.00118 0.00671449 0)
(1.00179 0.00695502 0)
(0.999826 0.000292188 0)
(1.00039 -0.000437521 0)
(1.00022 -0.0002189 0)
(0.998897 -0.000432359 0)
(0.998406 0.00079312 0)
(0.999867 0.000906176 0)
(0.999801 -7.47096e-06 0)
(0.999942 4.24633e-05 0)
(0.999428 -0.000936806 0)
(0.997655 2.88866e-05 0)
(0.997289 0.00136544 0)
(0.998183 0.00132664 0)
(0.997234 0.0028487 0)
(0.99733 0.00461883 0)
(0.998978 0.00478356 0)
(0.999927 0.00513067 0)
(0.999641 0.00625314 0)
(1.00012 0.00673194 0)
(1.00124 0.00662345 0)
(1.00193 0.00674387 0)
(0.999838 0.000274093 0)
(1.00039 -0.000364072 0)
(1.00026 -0.000323939 0)
(0.998985 -0.000294908 0)
(0.998515 0.000717756 0)
(0.999872 0.000844199 0)
(0.99981 0.000106732 0)
(0.999935 8.9877e-05 0)
(0.999501 -0.000746222 0)
(0.997893 0.000170013 0)
(0.99746 0.00150165 0)
(0.99837 0.00147972 0)
(0.997621 0.00274467 0)
(0.997596 0.00451101 0)
(0.999088 0.00480656 0)
(1.00015 0.00498656 0)
(0.999923 0.00597976 0)
(1.00023 0.00660038 0)
(1.00129 0.00654398 0)
(1.00205 0.00655713 0)
(0.999849 0.000251777 0)
(1.00039 -0.000282996 0)
(1.0003 -0.000423221 0)
(0.999077 -0.000187799 0)
(0.998617 0.000668755 0)
(0.999886 0.000766928 0)
(0.999826 0.000223276 0)
(0.999932 0.000180941 0)
(0.999579 -0.000560576 0)
(0.998138 0.000289358 0)
(0.997639 0.00162648 0)
(0.998541 0.00164175 0)
(0.997996 0.0026602 0)
(0.997889 0.0043754 0)
(0.999203 0.00481215 0)
(1.00035 0.00488427 0)
(1.00022 0.00571666 0)
(1.00039 0.00642409 0)
(1.00133 0.00645647 0)
(1.00214 0.0063974 0)
(0.999861 0.000223775 0)
(1.00037 -0.000192126 0)
(1.00034 -0.000514365 0)
(0.999174 -0.000110984 0)
(0.998714 0.000643472 0)
(0.99991 0.000682362 0)
(0.999854 0.000325477 0)
(0.999932 0.000307346 0)
(0.99966 -0.000370234 0)
(0.998387 0.000394107 0)
(0.997832 0.00173067 0)
(0.998699 0.00181289 0)
(0.998354 0.00260327 0)
(0.998205 0.00421396 0)
(0.999331 0.0047894 0)
(1.00052 0.00481479 0)
(1.00051 0.00547997 0)
(1.00057 0.00621775 0)
(1.00138 0.00634933 0)
(1.00221 0.00625902 0)
(0.999874 0.000191347 0)
(1.00036 -9.59999e-05 0)
(1.00038 -0.000590831 0)
(0.999277 -6.40761e-05 0)
(0.998803 0.000646618 0)
(0.99994 0.000595245 0)
(0.999896 0.000398557 0)
(0.999938 0.000462917 0)
(0.999738 -0.000165153 0)
(0.998637 0.000486774 0)
(0.998041 0.00181018 0)
(0.998847 0.00198496 0)
(0.998686 0.00257921 0)
(0.998538 0.00403576 0)
(0.99948 0.00472834 0)
(1.00066 0.00476258 0)
(1.00078 0.00527329 0)
(1.00079 0.00599648 0)
(1.00145 0.00622095 0)
(1.00227 0.00613062 0)
(0.999886 0.000155948 0)
(1.00033 -1.05159e-06 0)
(1.00041 -0.000648285 0)
(0.999386 -4.61559e-05 0)
(0.998886 0.000676021 0)
(0.999971 0.000521788 0)
(0.999957 0.000431442 0)
(0.999955 0.000630601 0)
(0.999809 5.79872e-05 0)
(0.998884 0.000571397 0)
(0.998267 0.00186021 0)
(0.998992 0.00214167 0)
(0.99899 0.00259024 0)
(0.998876 0.00386538 0)
(0.999655 0.00463238 0)
(1.0008 0.0047115 0)
(1.00104 0.00509036 0)
(1.00102 0.00576341 0)
(1.00154 0.00606925 0)
(1.00231 0.00599778 0)
(0.999898 0.000119458 0)
(1.00031 8.98909e-05 0)
(1.00044 -0.000677854 0)
(0.999502 -5.92507e-05 0)
(0.998965 0.000727601 0)
(0.999998 0.000482318 0)
(1.00003 0.000434054 0)
(0.999987 0.000776821 0)
(0.999872 0.000292292 0)
(0.999119 0.000663276 0)
(0.998508 0.00187789 0)
(0.999139 0.00227252 0)
(0.999266 0.00263084 0)
(0.999212 0.00371814 0)
(0.999854 0.00450874 0)
(1.00093 0.00464767 0)
(1.00128 0.00492863 0)
(1.00127 0.00552669 0)
(1.00166 0.00590018 0)
(1.00236 0.00585792 0)
(0.999909 8.33654e-05 0)
(1.00027 0.000174607 0)
(1.00046 -0.000676628 0)
(0.999624 -9.81627e-05 0)
(0.999043 0.000789121 0)
(1.00002 0.000495701 0)
(1.00012 0.000417882 0)
(1.00004 0.000880591 0)
(0.999931 0.000526537 0)
(0.999338 0.000765916 0)
(0.998761 0.00186907 0)
(0.999296 0.00236962 0)
(0.999518 0.0026877 0)
(0.999534 0.00359719 0)
(1.00007 0.00437021 0)
(1.00106 0.00456659 0)
(1.0015 0.00478563 0)
(1.00152 0.005294 0)
(1.0018 0.00571458 0)
(1.00242 0.00570895 0)
(0.99992 5.02051e-05 0)
(1.00024 0.000244767 0)
(1.00046 -0.00064263 0)
(0.99975 -0.00015406 0)
(0.999127 0.000841163 0)
(1.00003 0.000566401 0)
(1.00021 0.00039284 0)
(1.00011 0.000930049 0)
(0.999989 0.000749516 0)
(0.999536 0.000893055 0)
(0.999019 0.00185406 0)
(0.999468 0.00242659 0)
(0.999751 0.00274348 0)
(0.999838 0.00350167 0)
(1.0003 0.00422906 0)
(1.00119 0.00447139 0)
(1.0017 0.00465587 0)
(1.00178 0.00507091 0)
(1.00197 0.0055137 0)
(1.00249 0.00555333 0)
(0.999929 2.13136e-05 0)
(1.0002 0.000298096 0)
(1.00046 -0.000577147 0)
(0.999878 -0.000219724 0)
(0.999221 0.000869885 0)
(1.00002 0.000672361 0)
(1.0003 0.000389229 0)
(1.0002 0.00093344 0)
(1.00006 0.000941877 0)
(0.999712 0.00104681 0)
(0.999273 0.0018509 0)
(0.999652 0.00244803 0)
(0.999973 0.00278636 0)
(1.00012 0.00342851 0)
(1.00053 0.00409529 0)
(1.00134 0.00436933 0)
(1.00188 0.00453732 0)
(1.00202 0.00486172 0)
(1.00215 0.00530056 0)
(1.00257 0.00539126 0)
(0.999938 -1.87231e-06 0)
(1.00016 0.000333744 0)
(1.00044 -0.000485907 0)
(1 -0.000284498 0)
(0.999328 0.000867635 0)
(1.00002 0.000802204 0)
(1.00037 0.000419576 0)
(1.00031 0.000907894 0)
(1.00014 0.00109575 0)
(0.999871 0.00121326 0)
(0.999513 0.001867 0)
(0.999845 0.00244264 0)
(1.00019 0.00280302 0)
(1.00039 0.00336603 0)
(1.00076 0.00397275 0)
(1.00148 0.00426338 0)
(1.00204 0.00442928 0)
(1.00225 0.00467013 0)
(1.00236 0.00507891 0)
(1.00266 0.00521886 0)
(0.999945 -1.7918e-05 0)
(1.00013 0.000348902 0)
(1.00041 -0.000373096 0)
(1.00012 -0.000334432 0)
(0.999452 0.000824014 0)
(1.00001 0.000942457 0)
(1.00042 0.000498402 0)
(1.00043 0.000871475 0)
(1.00024 0.00119778 0)
(1.00002 0.00137317 0)
(0.999734 0.00191057 0)
(1.00004 0.00243583 0)
(1.0004 0.00279659 0)
(1.00065 0.00330256 0)
(1.001 0.00385688 0)
(1.00164 0.00414921 0)
(1.00219 0.00432503 0)
(1.00246 0.00450174 0)
(1.00256 0.0048585 0)
(1.00278 0.00503555 0)
(0.99995 -2.75416e-05 0)
(1.00011 0.000347626 0)
(1.00037 -0.000253074 0)
(1.00023 -0.000355546 0)
(0.999593 0.000743827 0)
(1.00001 0.00106396 0)
(1.00044 0.000622069 0)
(1.00055 0.00085069 0)
(1.00037 0.00124354 0)
(1.00016 0.00151027 0)
(0.999937 0.00197463 0)
(1.00022 0.00243537 0)
(1.00061 0.00277662 0)
(1.00089 0.00322959 0)
(1.00122 0.0037439 0)
(1.0018 0.00403239 0)
(1.00233 0.00421915 0)
(1.00264 0.00435668 0)
(1.00277 0.00464981 0)
(1.00291 0.00484109 0)
(0.999954 -2.89577e-05 0)
(1.00009 0.000331198 0)
(1.00033 -0.00013249 0)
(1.00031 -0.000342779 0)
(0.999747 0.000644008 0)
(1.00002 0.00115578 0)
(1.00045 0.000771782 0)
(1.00065 0.000857656 0)
(1.00051 0.00125226 0)
(1.00031 0.0016134 0)
(1.00012 0.00204828 0)
(1.0004 0.00244458 0)
(1.0008 0.00275394 0)
(1.00112 0.00314814 0)
(1.00144 0.00362518 0)
(1.00196 0.00391196 0)
(1.00246 0.00410661 0)
(1.00281 0.00422337 0)
(1.00296 0.00445909 0)
(1.00305 0.00464218 0)
(0.999956 -2.29376e-05 0)
(1.00007 0.000304357 0)
(1.00029 -1.83152e-05 0)
(1.00038 -0.000290345 0)
(0.99991 0.000534534 0)
(1.00006 0.00120519 0)
(1.00045 0.000935069 0)
(1.00073 0.000902362 0)
(1.00066 0.00124516 0)
(1.00047 0.00166561 0)
(1.0003 0.0021139 0)
(1.00055 0.00247003 0)
(1.00098 0.00273703 0)
(1.00134 0.0030688 0)
(1.00166 0.00350135 0)
(1.00213 0.00378395 0)
(1.0026 0.00398824 0)
(1.00295 0.00409231 0)
(1.00314 0.00428322 0)
(1.00319 0.00444494 0)
(0.999957 -1.06681e-05 0)
(1.00007 0.000273062 0)
(1.00025 8.55715e-05 0)
(1.00043 -0.0001977 0)
(1.00007 0.000432502 0)
(1.00013 0.00119895 0)
(1.00044 0.00108876 0)
(1.00078 0.000990985 0)
(1.0008 0.00124447 0)
(1.00064 0.00167484 0)
(1.00048 0.0021527 0)
(1.0007 0.00249909 0)
(1.00114 0.00272876 0)
(1.00153 0.00299586 0)
(1.00187 0.0033788 0)
(1.00229 0.00364861 0)
(1.00273 0.00386349 0)
(1.00308 0.00396356 0)
(1.00329 0.00411848 0)
(1.00333 0.00425391 0)
(0.999958 5.32313e-06 0)
(1.00007 0.000244324 0)
(1.00022 0.00017545 0)
(1.00046 -8.06847e-05 0)
(1.00022 0.000357272 0)
(1.00022 0.00114765 0)
(1.00045 0.00121417 0)
(1.00082 0.00110587 0)
(1.00093 0.00126163 0)
(1.00082 0.00166253 0)
(1.00067 0.00215979 0)
(1.00084 0.00251802 0)
(1.00127 0.0027325 0)
(1.00171 0.002934 0)
(1.00207 0.00325985 0)
(1.00246 0.00350665 0)
(1.00287 0.00372468 0)
(1.0032 0.00383226 0)
(1.00343 0.00396255 0)
(1.00347 0.00406741 0)
(0.999957 2.37009e-05 0)
(1.00007 0.000223686 0)
(1.0002 0.000244067 0)
(1.00047 4.56221e-05 0)
(1.00036 0.000318188 0)
(1.00033 0.0010699 0)
(1.00047 0.00130193 0)
(1.00084 0.00123054 0)
(1.00104 0.00130473 0)
(1.001 0.00164196 0)
(1.00086 0.00213214 0)
(1.00099 0.00251353 0)
(1.00139 0.00273495 0)
(1.00185 0.00288822 0)
(1.00224 0.0031531 0)
(1.00262 0.00336802 0)
(1.00301 0.00357731 0)
(1.00331 0.00369298 0)
(1.00354 0.00381495 0)
(1.0036 0.00388307 0)
(0.999957 4.18116e-05 0)
(1.00008 0.000213595 0)
(1.00019 0.00029177 0)
(1.00048 0.000177537 0)
(1.00048 0.000320735 0)
(1.00046 0.00098224 0)
(1.00052 0.00134175 0)
(1.00085 0.00135236 0)
(1.00112 0.00137772 0)
(1.00115 0.00163238 0)
(1.00106 0.00208445 0)
(1.00114 0.00248304 0)
(1.00151 0.00272353 0)
(1.00197 0.00285027 0)
(1.00239 0.00306135 0)
(1.00277 0.00323716 0)
(1.00315 0.00342895 0)
(1.00343 0.00354275 0)
(1.00364 0.00367154 0)
(1.00372 0.00370723 0)
(0.999957 5.84972e-05 0)
(1.00009 0.000215484 0)
(1.0002 0.000320011 0)
(1.00048 0.000300453 0)
(1.00057 0.000364877 0)
(1.00059 0.000906029 0)
(1.0006 0.00133538 0)
(1.00087 0.00145304 0)
(1.00118 0.00146545 0)
(1.00129 0.00164044 0)
(1.00125 0.00203331 0)
(1.00131 0.00242612 0)
(1.00163 0.00269595 0)
(1.00208 0.0028103 0)
(1.00252 0.0029817 0)
(1.0029 0.00311773 0)
(1.00327 0.00328499 0)
(1.00355 0.00338432 0)
(1.00373 0.00352217 0)
(1.00381 0.00354097 0)
(0.999958 7.2298e-05 0)
(1.0001 0.000228075 0)
(1.00021 0.000337098 0)
(1.00048 0.000402149 0)
(1.00064 0.000434104 0)
(1.00072 0.000855924 0)
(1.0007 0.00130226 0)
(1.00091 0.00152185 0)
(1.00122 0.00155584 0)
(1.00141 0.00166737 0)
(1.00143 0.00198969 0)
(1.00148 0.00234964 0)
(1.00175 0.00264565 0)
(1.00217 0.00276392 0)
(1.00262 0.00290618 0)
(1.00301 0.00300986 0)
(1.00338 0.00315054 0)
(1.00366 0.00322598 0)
(1.00382 0.00336428 0)
(1.00389 0.00338123 0)
(0.99996 8.2912e-05 0)
(1.00011 0.000249433 0)
(1.00023 0.000348659 0)
(1.00049 0.000481646 0)
(1.00069 0.000516315 0)
(1.00083 0.000836169 0)
(1.00081 0.00125903 0)
(1.00096 0.0015564 0)
(1.00126 0.00163682 0)
(1.00149 0.00171192 0)
(1.00159 0.00196159 0)
(1.00165 0.00227326 0)
(1.00188 0.00257154 0)
(1.00226 0.00270608 0)
(1.00271 0.00282977 0)
(1.0031 0.00290592 0)
(1.00347 0.0030263 0)