/*--------------------------------*- C++ -*----------------------------------*\
| =========                 |                                                 |
| \\      /  F ield         | OpenFOAM: The Open Source CFD Toolbox           |
|  \\    /   O peration     | Version:  3.0.1                                 |
|   \\  /    A nd           | Web:      www.OpenFOAM.org                      |
|    \\/     M anipulation  |                                                 |
\*---------------------------------------------------------------------------*/
FoamFile
{
    version     2.0;
    format      ascii;
    class       volScalarField;
    location    "0.9";
    object      p;
}
// * * * * * * * * * * * * * * * * * * * * * * * * * * * * * * * * * * * * * //

dimensions      [0 2 -2 0 0 0 0];

internalField   nonuniform List<scalar> 
9600
(
2.41446e-10
0.00166888
0.0021706
0.00539529
0.00104623
-0.00021566
-0.000509722
0.000866749
-0.00124434
-0.000415228
-0.000159877
4.64447e-05
-0.000586724
0.000196029
0.000432096
0.00130477
0.00193941
0.0037247
0.00546702
0.0095155
5.50931e-07
0.00167162
0.0021706
0.005305
0.00104858
-0.000194678
-0.000508934
0.000864156
-0.0012411
-0.00041609
-0.000162497
4.23769e-05
-0.000580563
0.00019474
0.0004434
0.0012902
0.00195015
0.00369323
0.00548605
0.00914977
2.23671e-06
0.00167466
0.00216687
0.00521743
0.0010552
-0.00017448
-0.00050882
0.000859276
-0.00123578
-0.000418302
-0.000156174
3.9746e-05
-0.000571198
0.00019204
0.000453941
0.00127678
0.00196078
0.00365514
0.00548602
0.00867191
5.33873e-06
0.00167617
0.00216148
0.00513152
0.0010625
-0.000154969
-0.000506414
0.000852591
-0.00122964
-0.000418956
-0.00015736
3.84439e-05
-0.000562093
0.000187113
0.000463414
0.00126083
0.00197076
0.00360733
0.00545741
0.00822937
1.02969e-05
0.0016762
0.00215491
0.0050461
0.00106991
-0.00013563
-0.000500533
0.000843488
-0.00122263
-0.000419382
-0.000160627
3.58652e-05
-0.000553629
0.00017935
0.000472922
0.00124067
0.00198015
0.00354979
0.00540685
0.00782194
1.73265e-05
0.00167475
0.0021472
0.00496117
0.00107708
-0.000116841
-0.000491419
0.000832419
-0.00121505
-0.00042131
-0.000165744
3.1309e-05
-0.000545162
0.000168861
0.00048324
0.00121632
0.00198903
0.00348355
0.00533526
0.00744101
2.61857e-05
0.00167184
0.00213874
0.00487617
0.00108366
-9.88633e-05
-0.000479555
0.000820485
-0.00120724
-0.00042478
-0.000171534
2.48863e-05
-0.00053591
0.000155883
0.00049481
0.00118841
0.00199604
0.00341062
0.00524112
0.00708133
3.6402e-05
0.00166778
0.00212979
0.00479026
0.00108963
-8.16093e-05
-0.000465312
0.00080858
-0.00119916
-0.0004293
-0.000177067
1.67212e-05
-0.000525397
0.000140452
0.000507774
0.00115726
0.0019994
0.00333271
0.00512241
0.00675235
4.7538e-05
0.0016629
0.00212038
0.00470284
0.00109525
-6.49392e-05
-0.00044897
0.000797094
-0.00119072
-0.000434742
-0.000181725
6.78091e-06
-0.000513465
0.000122519
0.000521775
0.00112333
0.00199707
0.00325123
0.00497853
0.00642511
5.929e-05
0.00165746
0.00211045
0.00461355
0.00110078
-4.8752e-05
-0.000430808
0.000786034
-0.00118187
-0.000441265
-0.000185062
-5.14388e-06
-0.000500123
0.000102106
0.000536118
0.00108753
0.00198674
0.00316713
0.00481088
0.00610478
7.14933e-05
0.00165155
0.00209991
0.00452221
0.00110638
-3.29845e-05
-0.00041112
0.000775237
-0.00117252
-0.000449137
-0.000186762
-1.93098e-05
-0.000485458
7.94759e-05
0.000549867
0.00105097
0.00196627
0.00308067
0.00462173
0.00578762
8.40829e-05
0.00164522
0.0020887
0.00442871
0.00111215
-1.76213e-05
-0.000390194
0.00076452
-0.0011626
-0.000458688
-0.000186603
-3.58569e-05
-0.000469723
5.50358e-05
0.000561889
0.00101458
0.00193407
0.00299177
0.00440423
0.00546943
9.70415e-05
0.00163842
0.00207677
0.00433303
0.0011181
-2.68387e-06
-0.000368296
0.000753731
-0.00115199
-0.000470265
-0.000184457
-5.4771e-05
-0.00045333
2.94167e-05
0.000570885
0.000979019
0.00188907
0.00290003
0.0041794
0.00514661
0.000110368
0.00163111
0.0020641
0.00423513
0.00112419
1.17988e-05
-0.000345643
0.000742736
-0.00114058
-0.000484124
-0.000180287
-7.59299e-05
-0.00043685
3.36149e-06
0.000575476
0.000944611
0.00183101
0.00280345
0.0039442
0.00481747
0.000124061
0.00162322
0.00205066
0.00413504
0.00113034
2.58017e-05
-0.000322402
0.000731406
-0.0011283
-0.000500431
-0.000174167
-9.9046e-05
-0.000421048
-2.2409e-05
0.000574547
0.000911346
0.00176032
0.00269913
0.00370319
0.00448208
0.000138118
0.00161464
0.00203643
0.00403277
0.00113645
3.93044e-05
-0.000298709
0.000719638
-0.00111509
-0.000519331
-0.000166278
-0.000123667
-0.000406755
-4.73946e-05
0.000566595
0.000878653
0.00167803
0.00258454
0.00345945
0.0041414
0.000152536
0.0016053
0.00202136
0.00392837
0.00114242
5.2287e-05
-0.000274702
0.0007074
-0.00110095
-0.000540867
-0.000156893
-0.000149316
-0.000394784
-7.12264e-05
0.000551855
0.000845346
0.00158544
0.00245754
0.00321468
0.00379715
0.000167311
0.0015951
0.00200544
0.00382192
0.00114813
6.47369e-05
-0.000250554
0.000694706
-0.00108594
-0.000564967
-0.000146375
-0.00017553
-0.000386057
-9.35958e-05
0.000531091
0.000809799
0.00148376
0.00231748
0.00296977
0.00345151
0.000182436
0.00158395
0.00198861
0.0037135
0.00115344
7.66854e-05
-0.000226465
0.000681579
-0.00107017
-0.00059153
-0.000135097
-0.000201857
-0.000380765
-0.000114477
0.000503694
0.000770445
0.00137393
0.00216417
0.00272537
0.00310708
0.000197906
0.00157174
0.00197085
0.00360324
0.00115821
8.8211e-05
-0.00020269
0.000668082
-0.00105372
-0.00062046
-0.00012344
-0.000227837
-0.000379417
-0.000134285
0.000469499
0.000726047
0.00125659
0.00199815
0.00248167
0.00276664
0.000213712
0.00155839
0.00195208
0.00349131
0.00116226
9.94167e-05
-0.000179529
0.000654338
-0.0010367
-0.000651661
-0.000111803
-0.000253062
-0.000382334
-0.000153675
0.000428335
0.000675508
0.00113217
0.00182016
0.00223843
0.00243288
0.000229847
0.00154382
0.00193223
0.00337791
0.0011654
0.000110442
-0.000157274
0.000640457
-0.00101917
-0.000685055
-0.000100467
-0.000277338
-0.000389816
-0.000173013
0.000379934
0.000617917
0.00100184
0.00163094
0.00199486
0.0021079
0.000246295
0.00152795
0.0019112
0.00326328
0.00116739
0.000121446
-0.000136187
0.000626489
-0.00100117
-0.000720662
-8.96094e-05
-0.000300497
-0.000402399
-0.000192565
0.000324018
0.000552539
0.000866608
0.0014312
0.00174982
0.00179322
0.000263029
0.00151072
0.00188886
0.00314771
0.00116798
0.00013258
-0.000116518
0.000612442
-0.000982636
-0.000758591
-7.94054e-05
-0.000322193
-0.000420779
-0.000212813
0.000260611
0.000478282
0.000727617
0.00122202
0.00150223
0.00148994
0.000280009
0.00149212
0.00186504
0.00303151
0.00116691
0.000143972
-9.84594e-05
0.000598249
-0.000963387
-0.000799067
-7.01629e-05
-0.000341887
-0.000445834
-0.000234345
0.000190125
0.000393728
0.000586115
0.00100543
0.00125088
0.00119863
0.000297185
0.00147213
0.00183955
0.00291505
0.0011639
0.000155699
-8.20857e-05
0.000583718
-0.000943004
-0.00084237
-6.25675e-05
-0.000358865
-0.000478542
-0.000257721
0.000113562
0.000297272
0.000442852
0.000784558
0.000994241
0.000918358
0.000314496
0.00145078
0.00181214
0.00279871
0.00115875
0.000167763
-6.73725e-05
0.00056854
-0.00092107
-0.000888548
-5.75931e-05
-0.000372359
-0.000519667
-0.000284504
3.25064e-05
0.000187819
0.000297268
0.000563545
0.000731477
0.00064535
0.000331848
0.00142816
0.00178255
0.00268283
0.00115134
0.000180095
-5.41367e-05
0.000552213
-0.000897401
-0.00093726
-5.64158e-05
-0.000381656
-0.000569645
-0.000316995
-5.11608e-05
6.55301e-05
0.000147668
0.000346435
0.000464339
0.000373031
0.00034912
0.00140439
0.00175048
0.0025677
0.00114156
0.000192522
-4.20227e-05
0.000534161
-0.000872003
-0.000987817
-6.06544e-05
-0.000386282
-0.00062833
-0.000357982
-0.000135684
-6.80528e-05
-8.21344e-06
0.000135871
0.000198126
9.5191e-05
0.000366159
0.00137967
0.0017157
0.0024535
0.00112948
0.000204715
-3.05903e-05
0.000513948
-0.000845078
-0.00103928
-7.22776e-05
-0.000386283
-0.000694656
-0.000410359
-0.000220018
-0.000210142
-0.000172499
-6.82506e-05
-6.05406e-05
-0.000189029
0.00038279
0.00135421
0.001678
0.00234037
0.00111521
0.00021626
-1.93444e-05
0.000491333
-0.000817261
-0.00109044
-9.28891e-05
-0.000382503
-0.00076699
-0.000476433
-0.000304106
-0.000357265
-0.000346335
-0.000268868
-0.000307511
-0.000473672
0.000398804
0.00132828
0.00163718
0.00222831
0.00109893
0.000226626
-7.91345e-06
0.000466342
-0.000789668
-0.00114014
-0.000123454
-0.000376666
-0.00084337
-0.00055738
-0.000388547
-0.00050623
-0.000529435
-0.000469296
-0.00054268
-0.000750318
0.000413947
0.0013022
0.00159321
0.00211711
0.001081
0.00023521
3.73709e-06
0.000439534
-0.000763668
-0.00118776
-0.000164366
-0.000371055
-0.000921911
-0.000653264
-0.000474041
-0.000654232
-0.000721145
-0.00067191
-0.000768301
-0.00101333
0.000427949
0.00127621
0.00154625
0.0020063
0.00106186
0.000241674
1.53508e-05
0.00041185
-0.000740498
-0.00123331
-0.000215594
-0.000367758
-0.00100118
-0.00076375
-0.000561489
-0.000798073
-0.000921029
-0.000878435
-0.000986357
-0.00126106
0.000440523
0.00125054
0.00149662
0.00189516
0.0010418
0.000246109
2.62814e-05
0.000384415
-0.000721026
-0.00127769
-0.000276951
-0.000368333
-0.00107974
-0.000888452
-0.00065252
-0.000934251
-0.00112782
-0.00109138
-0.00119771
-0.00149389
0.000451376
0.00122533
0.0014449
0.00178288
0.00102091
0.000248892
3.52626e-05
0.000358487
-0.000705467
-0.0013224
-0.000348231
-0.000373889
-0.00115586
-0.00102646
-0.000749967
-0.00105981
-0.00133798
-0.00131437
-0.00140363
-0.00171186
0.000460269
0.00120056
0.00139195
0.00166863
0.000998849
0.000250785
4.06433e-05
0.000334589
-0.000692983
-0.00136912
-0.000429677
-0.00038485
-0.00122741
-0.00117659
-0.000857745
-0.00117318
-0.00154522
-0.00155037
-0.00160798
-0.0019142
0.000467017
0.00117606
0.00133886
0.00155166
0.000974712
0.000253144
4.10314e-05
0.000312428
-0.000681847
-0.00141889
-0.000522048
-0.000401423
-0.00129198
-0.00133729
-0.000980658
-0.0012756
-0.001742
-0.00179879
-0.0018174
-0.00210176
0.000471512
0.00115145
0.00128679
0.00143168
0.000947061
0.000257434
3.54635e-05
0.000290653
-0.000670102
-0.00147163
-0.000626495
-0.000424545
-0.00134689
-0.00150531
-0.00112372
-0.001372
-0.00192129
-0.00205424
-0.0020386
-0.0022793
0.000473705
0.00112621
0.00123681
0.00130833
0.000913804
0.000264768
2.39564e-05
0.000266454
-0.000656468
-0.00152594
-0.000744075
-0.000456552
-0.00139001
-0.00167611
-0.00128993
-0.00146897
-0.0020791
-0.0023086
-0.00227488
-0.00245463
0.00047356
0.00109971
0.00118995
0.00118041
0.000872201
0.000275416
7.96681e-06
0.000236048
-0.000640922
-0.00157783
-0.000874949
-0.000501384
-0.00142092
-0.00184379
-0.0014788
-0.00157418
-0.00221573
-0.00255376
-0.00252513
-0.00263513
0.000471061
0.00107131
0.00114707
0.00105421
0.000819498
0.000288564
-9.92938e-06
0.000196423
-0.000624693
-0.00162248
-0.00101768
-0.000564272
-0.00144152
-0.00200098
-0.00168669
-0.00169506
-0.00233442
-0.00278277
-0.00278577
-0.00282561
0.000466282
0.00104032
0.00110852
0.000930776
0.000753166
0.000302341
-2.64873e-05
0.000146006
-0.000611042
-0.00165642
-0.00116874
-0.000649918
-0.00145653
-0.00214097
-0.00190799
-0.00183708
-0.00244005
-0.00298943
-0.00305201
-0.00302928
0.000459387
0.00100601
0.0010742
0.000812636
0.000671556
0.000313509
-3.83705e-05
8.48783e-05
-0.000604834
-0.00167823
-0.00132214
-0.000760042
-0.00147325
-0.00226045
-0.00213475
-0.00200261
-0.00253966
-0.00316898
-0.00331727
-0.00324903
0.00045063
0.000967836
0.0010433
0.000702494
0.000574311
0.000317326
-4.34224e-05
1.4331e-05
-0.000611131
-0.00168878
-0.00147046
-0.00089286
-0.00150033
-0.00236095
-0.0023579
-0.00219033
-0.0026418
-0.00331985
-0.00357176
-0.00348594
0.000440403
0.000925249
0.00101421
0.000603028
0.000462649
0.000308367
-4.11601e-05
-6.13719e-05
-0.000633714
-0.00169094
-0.00160698
-0.00104452
-0.0015448
-0.00244636
-0.00257059
-0.00239557
-0.00275445
-0.00344542
-0.00380408
-0.0037363
0.000429168
0.000877772
0.000984803
0.000516741
0.000339555
0.000282491
-3.29196e-05
-0.000135684
-0.000673949
-0.00169061
-0.00172766
-0.0012081
-0.00160964
-0.00252299
-0.00276972
-0.00261195
-0.00288255
-0.0035539
-0.00400625
-0.00399052
0.000417346
0.000825252
0.000952486
0.000445571
0.00020964
0.00023276
-2.27671e-05
-0.000202499
-0.00073064
-0.00169595
-0.00183271
-0.00137457
-0.0016936
-0.00259699
-0.00295457
-0.0028341
-0.00302715
-0.00365464
-0.00417663
-0.00423567
0.000405247
0.000761195
0.00091448
0.000390238
7.87313e-05
0.000155692
-1.63058e-05
-0.000256629
-0.000800039
-0.00171363
-0.00192425
-0.00153697
-0.0017934
-0.00267129
-0.00312589
-0.00305852
-0.0031875
-0.00375488
-0.0043188
-0.00446036
0.000393044
0.000699516
0.000868535
0.000350485
-4.66954e-05
5.02967e-05
-2.19481e-05
-0.000295917
-0.000874879
-0.00174675
-0.00200774
-0.00169231
-0.00190391
-0.00274725
-0.00328344
-0.00328145
-0.00336266
-0.00385985
-0.00443871
-0.00465777
0.00038061
0.000634976
0.000813023
0.000323175
-0.000160854
-8.15958e-05
-5.02456e-05
-0.000322532
-0.000945719
-0.00179457
-0.00209149
-0.0018406
-0.00202045
-0.00282528
-0.00342727
-0.00349762
-0.00354999
-0.00397409
-0.00454375
-0.00482598
0.000367594
0.000568898
0.000746987
0.000303132
-0.000259016
-0.000234238
-0.000108204
-0.00034294
-0.0010052
-0.00185342
-0.00218131
-0.0019845
-0.00214071
-0.00290476
-0.00355821
-0.00370297
-0.00374388
-0.00409965
-0.00464216
-0.00496772
0.000353351
0.00050286
0.000670344
0.000284242
-0.000337979
-0.000389928
-0.000200506
-0.00036847
-0.00105084
-0.00191514
-0.00227748
-0.00212876
-0.00226397
-0.00298527
-0.00367698
-0.00389557
-0.00393855
-0.00423348
-0.00473958
-0.00508941
0.000337143
0.000438117
0.000583846
0.000256304
-0.000396912
-0.000543458
-0.000327394
-0.000412925
-0.00108371
-0.00197098
-0.00237846
-0.00227609
-0.00239193
-0.00306709
-0.00378457
-0.0040742
-0.00413137
-0.00437098
-0.00483544
-0.00519725
0.00031822
0.00037541
0.000489203
0.000218464
-0.000437906
-0.000686979
-0.000484507
-0.000486386
-0.00110921
-0.00201457
-0.00247883
-0.00242633
-0.00252635
-0.00315231
-0.00388253
-0.00423785
-0.00432066
-0.00451159
-0.00492618
-0.0052924
0.000295701
0.000315248
0.000388797
0.000168002
-0.00046721
-0.000814268
-0.00066015
-0.000592332
-0.00114071
-0.00204545
-0.00257042
-0.00257775
-0.0026674
-0.00324254
-0.00397372
-0.00438658
-0.00450369
-0.00465712
-0.00501244
-0.00537143
0.00026869
0.000257691
0.000285591
0.000103234
-0.000492634
-0.000922134
-0.000841017
-0.000730098
-0.00118977
-0.00206749
-0.00264835
-0.00272387
-0.00281403
-0.00333883
-0.00406043
-0.00452241
-0.00467785
-0.00480735
-0.00509976
-0.00543357
0.000236434
0.000202138
0.000182899
2.41627e-05
-0.000521366
-0.00101091
-0.00101709
-0.000895413
-0.00126334
-0.00208982
-0.00271371
-0.00285837
-0.00296126
-0.00344106
-0.00414411
-0.00464713
-0.00484279
-0.00495935
-0.00519332
-0.005484
0.000198516
0.000147333
8.28786e-05
-6.73429e-05
-0.000559714
-0.00108448
-0.00118132
-0.00107626
-0.00136336
-0.00212109
-0.00276961
-0.00298112
-0.0031025
-0.00354624
-0.00422564
-0.00476117
-0.00499923
-0.00511122
-0.00529429
-0.00553181
0.000154834
9.16925e-05
-1.37262e-05
-0.000168469
-0.000610618
-0.00114688
-0.00132887
-0.00126055
-0.00148781
-0.00216877
-0.00282185
-0.00309296
-0.00323636
-0.00364865
-0.00430386
-0.00486415
-0.00514623
-0.00526298
-0.00540197
-0.00558322
0.000105585
3.37166e-05
-0.000106958
-0.000275548
-0.000675374
-0.00120827
-0.00145929
-0.00144036
-0.0016278
-0.00223397
-0.00287714
-0.00319668
-0.00336415
-0.00374622
-0.00437443
-0.00495482
-0.00528083
-0.00541326
-0.00551644
-0.00564044
5.0848e-05
-2.75896e-05
-0.000197711
-0.000385264
-0.000753049
-0.00127233
-0.00157632
-0.00161152
-0.00177585
-0.00231464
-0.00293909
-0.00329646
-0.00348664
-0.00384085
-0.00443524
-0.00502936
-0.00539951
-0.00555771
-0.00563768
-0.00570566
-9.28779e-06
-9.28926e-05
-0.000287178
-0.000495792
-0.00084099
-0.0013416
-0.00168571
-0.00177306
-0.00192705
-0.00240604
-0.00300612
-0.00339544
-0.00360633
-0.00393326
-0.00448801
-0.00508499
-0.00549702
-0.00568932
-0.00576221
-0.00578139
-7.47281e-05
-0.000162483
-0.000376516
-0.000606516
-0.000936151
-0.00141684
-0.00179041
-0.00192582
-0.00207835
-0.00250483
-0.00307571
-0.00349144
-0.00372596
-0.00402637
-0.00453506
-0.00512209
-0.00556874
-0.00579983
-0.00588078
-0.00586625
-0.00014581
-0.000236501
-0.000466235
-0.000717469
-0.0010368
-0.00149755
-0.0018923
-0.002072
-0.0022288
-0.00260952
-0.00314614
-0.00358064
-0.00384283
-0.00412346
-0.00457996
-0.00514321
-0.00561372
-0.00588243
-0.00598259
-0.00595173
-0.0002216
-0.000314935
-0.000556682
-0.000828577
-0.0011426
-0.00158329
-0.00199248
-0.00221249
-0.00237805
-0.00271962
-0.00321816
-0.00366028
-0.00394998
-0.00422251
-0.00462742
-0.0051512
-0.00563224
-0.00593414
-0.00605795
-0.00602583
-0.000302433
-0.0003978
-0.000648152
-0.000939482
-0.00125306
-0.00167435
-0.00209143
-0.00234845
-0.00252634
-0.002834
-0.00329284
-0.00373139
-0.00404242
-0.0043151
-0.00467772
-0.00515
-0.00562378
-0.00595298
-0.0061011
-0.00607791
-0.000387946
-0.000485046
-0.00074101
-0.00104982
-0.00136724
-0.00177146
-0.00219024
-0.00248007
-0.00267463
-0.00295347
-0.00337053
-0.00379663
-0.00411923
-0.00439277
-0.00472348
-0.00514131
-0.00558775
-0.00593408
-0.00610628
-0.00609686
-0.00047755
-0.000576412
-0.000835689
-0.00115949
-0.00148407
-0.0018749
-0.00229114
-0.00260791
-0.00282293
-0.00308016
-0.00345296
-0.00385729
-0.00418298
-0.00445154
-0.00475366
-0.00512033
-0.00552359
-0.00586973
-0.00606263
-0.0060692
-0.000570609
-0.000671468
-0.00093254
-0.00126831
-0.00160263
-0.00198461
-0.00239596
-0.00273383
-0.00297174
-0.00321642
-0.00354521
-0.00391622
-0.0042345
-0.00449066
-0.00475886
-0.00507556
-0.00542644
-0.00574971
-0.0059521
-0.00597426
-0.000666161
-0.000769644
-0.00103192
-0.00137612
-0.00172163
-0.00210033
-0.00250651
-0.0028601
-0.00312192
-0.00336425
-0.00365576
-0.00398407
-0.00427845
-0.00451095
-0.0047343
-0.00499133
-0.00527813
-0.00555348
-0.0057432
-0.00577426
-0.000763219
-0.000870196
-0.00113345
-0.00148347
-0.00184021
-0.0022204
-0.00262387
-0.00298981
-0.00327525
-0.00352415
-0.0037913
-0.00408029
-0.00433643
-0.00452529
-0.00468309
-0.00485366
-0.00504626
-0.00523497
-0.00537059
-0.00538759
-0.000860646
-0.000972333
-0.00123599
-0.00158998
-0.00195815
-0.00234404
-0.00274778
-0.00312503
-0.00343347
-0.00369702
-0.00395318
-0.00421588
-0.00444061
-0.00458002
-0.00464701
-0.00467765
-0.00470105
-0.00472016
-0.00472312
-0.00466612
-0.000957639
-0.00107417
-0.00133836
-0.00169537
-0.00207435
-0.00247023
-0.0028784
-0.00326641
-0.00359653
-0.00387957
-0.00413724
-0.00439157
-0.00460126
-0.00470904
-0.00469689
-0.00452994
-0.0042046
-0.00379076
-0.00339801
-0.00314149
-0.00105352
-0.00117346
-0.00143888
-0.00179929
-0.00218709
-0.00259537
-0.00301696
-0.00341622
-0.00376349
-0.00406185
-0.00431136
-0.00453255
-0.00467555
-0.00464576
-0.00441681
-0.00399996
-0.00349477
-0.00303918
-0.00273249
-0.0026467
-0.00114523
-0.00126833
-0.00153688
-0.00190096
-0.00229639
-0.0027152
-0.00315022
-0.00357205
-0.00393873
-0.00423895
-0.00444882
-0.00456529
-0.00456343
-0.00436672
-0.00399226
-0.00353314
-0.00308436
-0.00272836
-0.00251798
-0.00250696
-0.00122975
-0.00135638
-0.00163002
-0.00199794
-0.00240264
-0.00283049
-0.00326296
-0.00368965
-0.00408125
-0.00440417
-0.00459539
-0.00459988
-0.0044097
-0.00403859
-0.0035711
-0.00310858
-0.00270269
-0.00239805
-0.0022369
-0.00227769
-0.00130441
-0.00143461
-0.00171142
-0.00208489
-0.00250276
-0.00294454
-0.00337806
-0.00376386
-0.0040573
-0.00426382
-0.00437655
-0.00440973
-0.00437769
-0.00421513
-0.00388166
-0.0034273
-0.00293698
-0.00250818
-0.00224176
-0.00222414
-0.00136559
-0.00149973
-0.00177843
-0.00215605
-0.00257306
-0.00301367
-0.003457
-0.00387966
-0.00423364
-0.00446753
-0.00452747
-0.00438338
-0.00409593
-0.00371648
-0.00327368
-0.00284106
-0.00248325
-0.00223666
-0.00213222
-0.00221951
-0.00141069
-0.00154913
-0.00183431
-0.00222182
-0.00265302
-0.0031053
-0.00354258
-0.00393852
-0.00423471
-0.00440201
-0.00444235
-0.00432205
-0.00405983
-0.00371722
-0.00331873
-0.00291499
-0.00257284
-0.00233519
-0.00223544
-0.00232115
0.0152369
0.00786125
-0.00105789
-0.00731494
-0.00930437
-0.00885434
-0.008032
-0.00749334
-0.00730516
-0.00734384
-0.0073982
-0.00741714
-0.00752083
-0.00771103
-0.00786403
-0.00794738
-0.00802276
-0.00813388
-0.00828923
-0.00847186
-0.00862621
-0.00872951
-0.0088369
-0.00898764
-0.00915186
-0.00930106
-0.00944473
-0.00960178
-0.00976687
-0.009929
-0.0100959
-0.0102619
-0.0104251
-0.0106085
-0.0108058
-0.0109995
-0.011201
-0.0114191
-0.0116438
-0.0118665
-0.0120867
-0.0123079
-0.0125377
-0.0127664
-0.0129785
-0.0131774
-0.0133827
-0.0135963
-0.0138195
-0.0140678
-0.0143375
-0.0146078
-0.0148736
-0.0151353
-0.0153917
-0.0156427
-0.0158971
-0.0161611
-0.0164408
-0.0167357
-0.0170285
-0.017324
-0.0176264
-0.0179266
-0.0182291
-0.0185373
-0.0188501
-0.0191673
-0.0194812
-0.019795
-0.0201137
-0.0204332
-0.0207649
-0.02109
-0.0214064
-0.0217403
-0.0220858
-0.0224168
-0.0227463
-0.0231068
-0.0234725
-0.0238335
-0.0241856
-0.0245449
-0.0249129
-0.0252844
-0.0256686
-0.0260516
-0.0264409
-0.0268288
-0.0272238
-0.0276278
-0.0280407
-0.0284599
-0.0288909
-0.029321
-0.0297583
-0.0302027
-0.0306409
-0.0310778
0.0142289
0.00769634
-0.000970134
-0.00717206
-0.00921796
-0.00881317
-0.00800706
-0.00747593
-0.00729219
-0.00733386
-0.0073901
-0.00741
-0.0075145
-0.00770567
-0.00785946
-0.0079433
-0.00801903
-0.00813045
-0.00828609
-0.00846909
-0.0086238
-0.00872729
-0.00883479
-0.00898569
-0.00915009
-0.00929941
-0.00944317
-0.00960029
-0.00976547
-0.00992767
-0.0100946
-0.0102607
-0.010424
-0.0106074
-0.0108048
-0.0109985
-0.0112001
-0.0114182
-0.011643
-0.0118657
-0.0120859
-0.0123072
-0.012537
-0.0127658
-0.0129779
-0.0131769
-0.0133821
-0.0135957
-0.013819
-0.0140673
-0.014337
-0.0146074
-0.0148732
-0.0151349
-0.0153913
-0.0156423
-0.0158968
-0.0161607
-0.0164404
-0.0167354
-0.0170283
-0.0173237
-0.0176261
-0.0179264
-0.0182289
-0.018537
-0.0188499
-0.0191671
-0.019481
-0.0197949
-0.0201136
-0.0204331
-0.0207647
-0.0210899
-0.0214062
-0.0217402
-0.0220856
-0.0224167
-0.0227462
-0.0231067
-0.0234724
-0.0238334
-0.0241855
-0.0245448
-0.0249129
-0.0252843
-0.0256686
-0.0260516
-0.0264409
-0.0268287
-0.0272237
-0.0276277
-0.0280406
-0.0284599
-0.0288909
-0.0293209
-0.0297583
-0.0302027
-0.0306409
-0.0310778
0.0133352
0.00755217
-0.000780731
-0.00690126
-0.00906771
-0.00875702
-0.00797954
-0.00745582
-0.00727618
-0.00732105
-0.00737993
-0.00740183
-0.0075077
-0.00769987
-0.00785445
-0.00793898
-0.00801531
-0.00812714
-0.00828306
-0.00846638
-0.00862142
-0.00872514
-0.00883279
-0.00898389
-0.00914846
-0.00929791
-0.00944176
-0.00959898
-0.00976425
-0.0099265
-0.0100935
-0.0102597
-0.010423
-0.0106065
-0.0108039
-0.0109976
-0.0111992
-0.0114174
-0.0116422
-0.011865
-0.0120852
-0.0123065
-0.0125364
-0.0127652
-0.0129774
-0.0131764
-0.0133817
-0.0135953
-0.0138185
-0.0140669
-0.0143366
-0.0146071
-0.0148729
-0.0151345
-0.015391
-0.015642
-0.0158965
-0.0161604
-0.0164402
-0.0167352
-0.017028
-0.0173235
-0.0176259
-0.0179262
-0.0182287
-0.0185368
-0.0188497
-0.0191669
-0.0194809
-0.0197947
-0.0201134
-0.020433
-0.0207646
-0.0210898
-0.0214061
-0.0217401
-0.0220856
-0.0224166
-0.0227461
-0.0231066
-0.0234723
-0.0238334
-0.0241855
-0.0245448
-0.0249128
-0.0252843
-0.0256685
-0.0260515
-0.0264409
-0.0268287
-0.0272237
-0.0276277
-0.0280406
-0.0284599
-0.0288909
-0.0293209
-0.0297583
-0.0302026
-0.0306409
-0.0310779
0.012508
0.00740118
-0.000545516
-0.00656089
-0.00886214
-0.00867705
-0.00793886
-0.00742551
-0.00725221
-0.00730179
-0.00736489
-0.00739072
-0.00749901
-0.00769203
-0.0078472
-0.00793288
-0.00801051
-0.00812314
-0.00827928
-0.00846274
-0.00861815
-0.00872234
-0.00883039
-0.00898174
-0.00914649
-0.00929613
-0.00944019
-0.00959757
-0.00976294
-0.00992524
-0.0100924
-0.0102586
-0.0104219
-0.0106054
-0.0108029
-0.0109967
-0.0111983
-0.0114165
-0.0116414
-0.0118643
-0.0120845
-0.0123059
-0.0125357
-0.0127646
-0.0129768
-0.0131758
-0.0133811
-0.0135948
-0.013818
-0.0140665
-0.0143362
-0.0146067
-0.0148725
-0.0151342
-0.0153907
-0.0156417
-0.0158962
-0.0161601
-0.0164399
-0.0167349
-0.0170278
-0.0173232
-0.0176257
-0.0179259
-0.0182285
-0.0185366
-0.0188495
-0.0191668
-0.0194807
-0.0197946
-0.0201133
-0.0204328
-0.0207645
-0.0210897
-0.021406
-0.02174
-0.0220855
-0.0224166
-0.022746
-0.0231066
-0.0234723
-0.0238333
-0.0241854
-0.0245447
-0.0249128
-0.0252842
-0.0256685
-0.0260515
-0.0264408
-0.0268287
-0.0272237
-0.0276277
-0.0280406
-0.0284599
-0.0288909
-0.0293209
-0.0297583
-0.0302026
-0.0306409
-0.0310781
0.0116974
0.00721979
-0.000306556
-0.00620365
-0.00863677
-0.00858642
-0.0078915
-0.00738792
-0.00722083
-0.0072755
-0.00734394
-0.0073756
-0.00748749
-0.00768126
-0.00783678
-0.00792409
-0.00800396
-0.00811801
-0.00827434
-0.00845757
-0.0086133
-0.00871839
-0.00882721
-0.00897886
-0.00914374
-0.0092937
-0.00943818
-0.00959587
-0.00976138
-0.00992377
-0.010091
-0.0102573
-0.0104207
-0.0106043
-0.0108018
-0.0109956
-0.0111973
-0.0114155
-0.0116405
-0.0118634
-0.0120837
-0.0123051
-0.012535
-0.0127639
-0.0129762
-0.0131752
-0.0133805
-0.0135942
-0.0138174
-0.0140659
-0.0143358
-0.0146063
-0.0148721
-0.0151338
-0.0153903
-0.0156414
-0.0158958
-0.0161598
-0.0164395
-0.0167346
-0.0170275
-0.0173229
-0.0176254
-0.0179257
-0.0182282
-0.0185364
-0.0188493
-0.0191665
-0.0194805
-0.0197944
-0.0201131
-0.0204326
-0.0207643
-0.0210895
-0.0214059
-0.0217398
-0.0220854
-0.0224165
-0.0227459
-0.0231065
-0.0234722
-0.0238332
-0.0241854
-0.0245446
-0.0249127
-0.0252842
-0.0256684
-0.0260515
-0.0264408
-0.0268287
-0.0272237
-0.0276277
-0.0280406
-0.0284599
-0.0288908
-0.0293209
-0.0297582
-0.0302026
-0.0306409
-0.0310783
0.0109011
0.00700341
-7.86637e-05
-0.00584484
-0.00840229
-0.00849152
-0.00784339
-0.00734798
-0.00718537
-0.00724461
-0.00731881
-0.00735739
-0.00747356
-0.00766785
-0.00782343
-0.00791272
-0.00799557
-0.00811164
-0.00826814
-0.00845071
-0.00860667
-0.00871312
-0.00882314
-0.0089751
-0.00914
-0.00929036
-0.00943551
-0.0095937
-0.00975945
-0.00992196
-0.0100894
-0.010256
-0.0104194
-0.010603
-0.0108004
-0.0109944
-0.0111961
-0.0114143
-0.0116393
-0.0118623
-0.0120827
-0.0123042
-0.0125341
-0.012763
-0.0129753
-0.0131744
-0.0133798
-0.0135934
-0.0138167
-0.0140652
-0.0143352
-0.0146058
-0.0148716
-0.0151334
-0.0153899
-0.0156409
-0.0158954
-0.0161594
-0.0164392
-0.0167343
-0.0170271
-0.0173226
-0.0176251
-0.0179254
-0.0182279
-0.0185361
-0.018849
-0.0191663
-0.0194803
-0.0197941
-0.0201129
-0.0204324
-0.0207641
-0.0210893
-0.0214057
-0.0217397
-0.0220852
-0.0224163
-0.0227458
-0.0231063
-0.0234721
-0.0238332
-0.0241853
-0.0245446
-0.0249127
-0.0252841
-0.0256684
-0.0260514
-0.0264408
-0.0268286
-0.0272236
-0.0276276
-0.0280405
-0.0284599
-0.0288908
-0.0293209
-0.0297582
-0.0302026
-0.0306409
-0.0310785
0.0101229
0.00675068
0.000133109
-0.00548592
-0.00815801
-0.00839172
-0.00779541
-0.00730728
-0.00714732
-0.00721069
-0.00729102
-0.00733716
-0.00745797
-0.00765269
-0.00780819
-0.00789961
-0.00798585
-0.00810424
-0.00826084
-0.0084424
-0.00859849
-0.00870667
-0.00881828
-0.00897055
-0.00913531
-0.0092861
-0.00943209
-0.00959092
-0.00975698
-0.00991971
-0.0100875
-0.0102544
-0.0104181
-0.0106015
-0.0107989
-0.0109929
-0.0111946
-0.0114129
-0.0116378
-0.0118609
-0.0120815
-0.0123032
-0.0125331
-0.012762
-0.0129744
-0.0131735
-0.0133789
-0.0135925
-0.0138157
-0.0140644
-0.0143345
-0.0146052
-0.0148711
-0.0151328
-0.0153893
-0.0156404
-0.0158949
-0.016159
-0.0164387
-0.0167338
-0.0170267
-0.0173222
-0.0176247
-0.017925
-0.0182276
-0.0185358
-0.0188487
-0.019166
-0.01948
-0.0197939
-0.0201126
-0.0204322
-0.0207639
-0.0210891
-0.0214055
-0.0217395
-0.022085
-0.0224161
-0.0227456
-0.0231062
-0.0234719
-0.023833
-0.0241852
-0.0245444
-0.0249126
-0.025284
-0.0256683
-0.0260513
-0.0264407
-0.0268286
-0.0272236
-0.0276276
-0.0280405
-0.0284598
-0.0288908
-0.0293209
-0.0297582
-0.0302026
-0.0306409
-0.0310788
0.00936715
0.00646304
0.000326694
-0.00512558
-0.00790118
-0.00828477
-0.00774711
-0.00726641
-0.0071073
-0.00717427
-0.00726109
-0.00731533
-0.00744117
-0.0076364
-0.00779178
-0.00788542
-0.00797524
-0.00809609
-0.00825272
-0.00843306
-0.00858921
-0.00869938
-0.00881284
-0.00896542
-0.00912992
-0.00928112
-0.00942801
-0.00958752
-0.00975389
-0.00991689
-0.0100851
-0.0102525
-0.0104166
-0.0106
-0.0107972
-0.0109912
-0.0111931
-0.0114111
-0.0116359
-0.0118591
-0.01208
-0.0123018
-0.0125318
-0.0127607
-0.0129732
-0.0131726
-0.0133779
-0.0135914
-0.0138146
-0.0140633
-0.0143336
-0.0146044
-0.0148704
-0.0151322
-0.0153887
-0.0156398
-0.0158944
-0.0161584
-0.0164382
-0.0167333
-0.0170262
-0.0173217
-0.0176242
-0.0179246
-0.0182272
-0.0185354
-0.0188482
-0.0191655
-0.0194796
-0.0197935
-0.0201123
-0.0204318
-0.0207635
-0.0210888
-0.0214052
-0.0217392
-0.0220847
-0.0224159
-0.0227454
-0.023106
-0.0234717
-0.0238329
-0.024185
-0.0245443
-0.0249124
-0.0252839
-0.0256682
-0.0260512
-0.0264406
-0.0268285
-0.0272235
-0.0276275
-0.0280404
-0.0284598
-0.0288907
-0.0293208
-0.0297582
-0.0302026
-0.030641
-0.0310792
0.00863917
0.00614411
0.000499449
-0.00476444
-0.00763045
-0.00816891
-0.00769809
-0.00722605
-0.00706591
-0.00713553
-0.00722905
-0.00729199
-0.00742336
-0.00761929
-0.00777456
-0.00787045
-0.00796394
-0.00808732
-0.008244
-0.00842304
-0.00857923
-0.0086915
-0.00880697
-0.0089599
-0.00912409
-0.0092757
-0.00942351
-0.00958363
-0.00975025
-0.0099135
-0.0100822
-0.0102504
-0.0104149
-0.0105983
-0.0107954
-0.0109895
-0.0111914
-0.0114093
-0.0116337
-0.0118569
-0.0120781
-0.0123001
-0.01253
-0.012759
-0.0129719
-0.0131715
-0.013377
-0.0135903
-0.0138134
-0.014062
-0.0143324
-0.0146034
-0.0148695
-0.0151313
-0.0153879
-0.0156391
-0.0158937
-0.0161578
-0.0164375
-0.0167326
-0.0170256
-0.0173211
-0.0176236
-0.017924
-0.0182266
-0.0185349
-0.0188477
-0.019165
-0.019479
-0.019793
-0.0201119
-0.0204314
-0.020763
-0.0210883
-0.0214048
-0.0217388
-0.0220844
-0.0224155
-0.022745
-0.0231057
-0.0234715
-0.0238326
-0.0241848
-0.0245441
-0.0249122
-0.0252837
-0.025668
-0.0260511
-0.0264405
-0.0268283
-0.0272234
-0.0276274
-0.0280403
-0.0284597
-0.0288907
-0.0293208
-0.0297581
-0.0302026
-0.030641
-0.0310796
0.00794368