/*--------------------------------*- C++ -*----------------------------------*\
| =========                 |                                                 |
| \\      /  F ield         | OpenFOAM: The Open Source CFD Toolbox           |
|  \\    /   O peration     | Version:  3.0.1                                 |
|   \\  /    A nd           | Web:      www.OpenFOAM.org                      |
|    \\/     M anipulation  |                                                 |
\*---------------------------------------------------------------------------*/
FoamFile
{
    version     2.0;
    format      ascii;
    class       surfaceScalarField;
    location    "0.9";
    object      phi;
}
// * * * * * * * * * * * * * * * * * * * * * * * * * * * * * * * * * * * * * //

dimensions      [0 3 -1 0 0 0 0];

internalField   nonuniform List<scalar> 
19000
(
1.17701e-06
-3.92769e-07
1.195e-06
3.6684e-07
1.18921e-06
3.47512e-07
1.12675e-06
8.58023e-08
1.15384e-06
-3.92224e-07
1.19156e-06
-8.14456e-08
1.18592e-06
-5.34783e-07
1.18338e-06
4.10345e-07
1.18758e-06
2.76169e-08
1.17442e-06
4.46666e-07
1.16983e-06
-5.46444e-09
1.16425e-06
1.81265e-07
1.17539e-06
-1.10492e-07
1.17494e-06
5.29551e-08
1.18425e-06
-6.63997e-08
1.17563e-06
-3.07339e-08
1.17891e-06
-1.11113e-07
1.1669e-06
-8.07804e-08
1.16623e-06
-1.14539e-07
-7.72163e-08
1.1309e-06
1.23443e-06
-4.0294e-07
1.25472e-06
3.46548e-07
1.24613e-06
3.56109e-07
1.18761e-06
1.44324e-07
1.21324e-06
-4.17854e-07
1.25078e-06
-1.18988e-07
1.24649e-06
-5.30492e-07
1.24681e-06
4.10019e-07
1.24799e-06
2.64383e-08
1.24044e-06
4.54216e-07
1.23018e-06
4.80124e-09
1.23104e-06
1.80405e-07
1.23325e-06
-1.12706e-07
1.24234e-06
4.38621e-08
1.2388e-06
-6.28563e-08
1.24508e-06
-3.70129e-08
1.22949e-06
-9.55183e-08
1.23811e-06
-8.94057e-08
1.21166e-06
-8.80849e-08
-7.87748e-08
1.21321e-06
1.29293e-06
-4.13087e-07
1.31735e-06
3.22125e-07
1.30498e-06
3.68482e-07
1.2563e-06
1.93002e-07
1.27504e-06
-4.36597e-07
1.31301e-06
-1.56958e-07
1.30798e-06
-5.25455e-07
1.31408e-06
4.03914e-07
1.30794e-06
3.25838e-08
1.30857e-06
4.53587e-07
1.29081e-06
2.25562e-08
1.29635e-06
1.74865e-07
1.29011e-06
-1.0647e-07
1.30283e-06
3.11427e-08
1.29485e-06
-5.48762e-08
1.30177e-06
-4.39247e-08
1.28684e-06
-8.05919e-08
1.28943e-06
-9.19926e-08
1.27157e-06
-7.02258e-08
-6.63112e-08
1.2591e-06
1.35236e-06
-4.21346e-07
1.37947e-06
2.95017e-07
1.36469e-06
3.83261e-07
1.32839e-06
2.29302e-07
1.33856e-06
-4.46769e-07
1.37449e-06
-1.92889e-07
1.36881e-06
-5.19771e-07
1.3779e-06
3.94824e-07
1.36741e-06
4.30736e-08
1.37053e-06
4.50462e-07
1.3516e-06
4.14906e-08
1.35568e-06
1.70789e-07
1.34767e-06
-9.84605e-08
1.35729e-06
2.15235e-08
1.35178e-06
-4.93692e-08
1.35515e-06
-4.72921e-08
1.34491e-06
-7.03592e-08
1.34272e-06
-8.97985e-08
1.32951e-06
-5.70152e-08
-5.12283e-08
1.31443e-06
1.41338e-06
-4.26373e-07
1.43982e-06
2.68577e-07
1.42516e-06
3.9792e-07
1.40091e-06
2.53559e-07
1.40389e-06
-4.49754e-07
1.43442e-06
-2.2342e-07
1.42935e-06
-5.14697e-07
1.43829e-06
3.85879e-07
1.42736e-06
5.4008e-08
1.42948e-06
4.48344e-07
1.4137e-06
5.72704e-08
1.41548e-06
1.6901e-07
1.40792e-06
-9.09027e-08
1.4145e-06
1.4944e-08
1.41065e-06
-4.55182e-08
1.41299e-06
-4.96388e-08
1.40472e-06
-6.20862e-08
1.40154e-06
-8.66158e-08
1.38945e-06
-4.49223e-08
-3.6038e-08
1.37426e-06
1.47723e-06
-4.27929e-07
1.4995e-06
2.46309e-07
1.48752e-06
4.09903e-07
1.47329e-06
2.67784e-07
1.47208e-06
-4.48546e-07
1.49496e-06
-2.46296e-07
1.491e-06
-5.10734e-07
1.4988e-06
3.78076e-07
1.48935e-06
6.3454e-08
1.49056e-06
4.47139e-07
1.47865e-06
6.91744e-08
1.48012e-06
1.67547e-07
1.47276e-06
-8.3543e-08
1.47777e-06
9.93348e-09
1.47395e-06
-4.17022e-08
1.47628e-06
-5.1968e-08
1.46888e-06
-5.46832e-08
1.46521e-06
-8.29449e-08
1.45426e-06
-3.398e-08
-2.02867e-08
1.43851e-06
1.54504e-06
-4.26755e-07
1.56108e-06
2.3027e-07
1.55317e-06
4.17818e-07
1.54674e-06
2.74215e-07
1.54398e-06
-4.4579e-07
1.55899e-06
-2.61304e-07
1.55516e-06
-5.06902e-07
1.5623e-06
3.70934e-07
1.55456e-06
7.11921e-08
1.55635e-06
4.45348e-07
1.54751e-06
7.80173e-08
1.55023e-06
1.64825e-07
1.54279e-06
-7.61003e-08
1.54704e-06
5.68507e-09
1.54262e-06
-3.72872e-08
1.54466e-06
-5.40096e-08
1.53783e-06
-4.78543e-08
1.53334e-06
-7.84521e-08
1.52387e-06
-2.4514e-08
-4.14906e-09
1.50774e-06
1.6173e-06
-4.23927e-07
1.62712e-06
2.20447e-07
1.62318e-06
4.21759e-07
1.62265e-06
2.74744e-07
1.61969e-06
-4.42826e-07
1.62814e-06
-2.69756e-07
1.6229e-06
-5.01661e-07
1.62999e-06
3.63843e-07
1.62367e-06
7.75154e-08
1.62727e-06
4.4175e-07
1.62058e-06
8.46998e-08
1.62508e-06
1.60331e-07
1.61753e-06
-6.85581e-08
1.62141e-06
1.8097e-09
1.61632e-06
-3.21951e-08
1.6177e-06
-5.53911e-08
1.61129e-06
-4.14448e-08
1.60563e-06
-7.27958e-08
1.59775e-06
-1.66333e-08
1.18753e-08
1.58173e-06
1.69388e-06
-4.20235e-07
1.69907e-06
2.15261e-07
1.69817e-06
4.22659e-07
1.7019e-06
2.71014e-07
1.69888e-06
-4.39808e-07
1.70259e-06
-2.73466e-07
1.69496e-06
-4.94027e-07
1.70227e-06
3.56532e-07
1.6971e-06
8.26829e-08
1.70304e-06
4.35813e-07
1.69781e-06
8.99274e-08
1.70395e-06
1.54194e-07
1.69632e-06
-6.0926e-08
1.70004e-06
-1.91047e-09
1.69446e-06
-2.6615e-08
1.69498e-06
-5.59124e-08
1.68902e-06
-3.5488e-08
1.68203e-06
-6.5804e-08
1.67558e-06
-1.01879e-08
2.72744e-08
1.66018e-06
1.77447e-06
-4.15987e-07
1.7771e-06
2.12633e-07
1.77831e-06
4.21445e-07
1.78482e-06
2.64511e-07
1.78125e-06
-4.36239e-07
1.78182e-06
-2.74034e-07
1.77171e-06
-4.83922e-07
1.77938e-06
3.48869e-07
1.77516e-06
8.68969e-08
1.78344e-06
4.27538e-07
1.77907e-06
9.42908e-08
1.78647e-06
1.468e-07
1.77871e-06
-5.31664e-08
1.78235e-06
-5.55552e-09
1.77661e-06
-2.08713e-08
1.7762e-06
-5.55071e-08
1.77089e-06
-3.01709e-08
1.76259e-06
-5.75073e-08
1.75724e-06
-4.83652e-09
4.15726e-08
1.74294e-06
1.85891e-06
-4.11154e-07
1.8607e-06
2.10851e-07
1.8635e-06
4.18645e-07
1.87156e-06
2.56448e-07
1.86678e-06
-4.31461e-07
1.86537e-06
-2.72622e-07
1.85332e-06
-4.71874e-07
1.8615e-06
3.40687e-07
1.85805e-06
9.03556e-08
1.86837e-06
4.1721e-07
1.86437e-06
9.8298e-08
1.87256e-06
1.38602e-07
1.86463e-06
-4.52305e-08
1.86815e-06
-9.08037e-09
1.8626e-06
-1.53171e-08
1.86127e-06
-5.4174e-08
1.85678e-06
-2.5682e-08
1.84742e-06
-4.81469e-08
1.84272e-06
-1.37905e-10
5.43507e-08
1.82994e-06
1.9473e-06
-4.0561e-07
1.94926e-06
2.08888e-07
1.95345e-06
4.14455e-07
1.96226e-06
2.47637e-07
1.95576e-06
-4.2496e-07
1.95313e-06
-2.69991e-07
1.93982e-06
-4.58566e-07
1.9487e-06
3.31804e-07
1.9458e-06
9.32541e-08
1.95781e-06
4.052e-07
1.95378e-06
1.02331e-07
1.96236e-06
1.30019e-07
1.95424e-06
-3.71106e-08
1.95751e-06
-1.23462e-08
1.95245e-06
-1.02616e-08
1.9502e-06
-5.19232e-08
1.94663e-06
-2.21089e-08
1.93659e-06
-3.81092e-08
1.93209e-06
4.36491e-09
6.52827e-08
1.92116e-06
2.03986e-06
-3.99285e-07
2.04245e-06
2.06301e-07
2.04793e-06
4.08972e-07
2.05708e-06
2.3849e-07
2.04863e-06
-4.16506e-07
2.04524e-06
-2.66607e-07
2.03122e-06
-4.44545e-07
2.04092e-06
3.22107e-07
2.03841e-06
9.57652e-08
2.05175e-06
3.91861e-07
2.04747e-06
1.06606e-07
2.05611e-06
1.2138e-07
2.04787e-06
-2.88725e-08
2.05069e-06
-1.5166e-08
2.04635e-06
-5.92301e-09
2.0432e-06
-4.87726e-08
2.04048e-06
-1.93811e-08
2.0302e-06
-2.78292e-08
2.02552e-06
9.04448e-09
7.42019e-08
2.0166e-06
2.13691e-06
-3.92198e-07
2.14022e-06
2.02992e-07
2.14684e-06
4.02351e-07
2.15619e-06
2.29143e-07
2.14584e-06
-4.06154e-07
2.14197e-06
-2.6274e-07
2.12757e-06
-4.30148e-07
2.13809e-06
3.1159e-07
2.13583e-06
9.80247e-08
2.1502e-06
3.7749e-07
2.14564e-06
1.11172e-07
2.1541e-06
1.12917e-07
2.14589e-06
-2.06586e-08
2.14807e-06
-1.73477e-08
2.14456e-06
-2.41114e-09
2.14056e-06
-4.47783e-08
2.13844e-06
-1.72593e-08
2.12834e-06
-1.77274e-08
2.12323e-06
1.41547e-08
8.11239e-08
2.1163e-06
2.23873e-06
-3.84434e-07
2.2427e-06
1.99012e-07
2.25023e-06
3.94828e-07
2.25978e-06
2.19592e-07
2.24778e-06
-3.94156e-07
2.24358e-06
-2.58539e-07
2.22897e-06
-4.15534e-07
2.24022e-06
3.00339e-07
2.23812e-06
1.00124e-07
2.25327e-06
3.62341e-07
2.24848e-06
1.15957e-07
2.25661e-06
1.04788e-07
2.24862e-06
-1.26617e-08
2.25e-06
-1.87352e-08
2.24731e-06
2.77654e-10
2.24259e-06
-4.00588e-08
2.24073e-06
-1.53904e-08
2.23115e-06
-8.15418e-09
2.22551e-06
1.98017e-08
8.62444e-08
2.22039e-06
2.34555e-06
-3.76106e-07
2.3501e-06
1.94461e-07
2.35826e-06
3.86665e-07
2.36806e-06
2.09796e-07
2.35476e-06
-3.8086e-07
2.35031e-06
-2.54087e-07
2.33554e-06
-4.00766e-07
2.34737e-06
2.88507e-07
2.34539e-06
1.02109e-07
2.36109e-06
3.46638e-07
2.35623e-06
1.20818e-07
2.36392e-06
9.71029e-08
2.35634e-06
-5.08443e-09
2.35684e-06
-1.92385e-08
2.35487e-06
2.24814e-09
2.3496e-06
-3.47878e-08
2.34761e-06
-1.34022e-08
2.33882e-06
6.37813e-10
2.33265e-06
2.59706e-08
8.98843e-08
2.32901e-06
2.45761e-06
-3.67322e-07
2.46264e-06
1.89432e-07
2.4712e-06
3.78103e-07
2.48126e-06
1.99733e-07
2.46702e-06
-3.66614e-07
2.46237e-06
-2.49434e-07
2.44747e-06
-3.85874e-07
2.4597e-06
2.76286e-07
2.45782e-06
1.03985e-07
2.47387e-06
3.30584e-07
2.46911e-06
1.25586e-07
2.47627e-06
8.99424e-08
2.46928e-06
1.90341e-09
2.46889e-06
-1.88503e-08
2.46746e-06
3.67762e-09
2.46183e-06
-2.91601e-08
2.45945e-06
-1.10186e-08
2.45154e-06
8.55059e-09
2.44497e-06
3.25347e-08
9.24336e-08
2.44242e-06
2.57514e-06
-3.58168e-07
2.58057e-06
1.84002e-07
2.58935e-06
3.69319e-07
2.59967e-06
1.89421e-07
2.58478e-06
-3.51726e-07
2.57995e-06
-2.44602e-07
2.56498e-06
-3.70904e-07
2.57738e-06
2.63878e-07
2.57565e-06
1.05724e-07
2.59187e-06
3.14361e-07
2.58735e-06
1.30104e-07
2.59393e-06
8.33632e-08
2.58763e-06
8.19748e-09
2.58643e-06
-1.76412e-08
2.58533e-06
4.77544e-09
2.57952e-06
-2.33483e-08
2.57661e-06
-8.11164e-09
2.56952e-06
1.56443e-08
2.56277e-06
3.92759e-08
9.42906e-08
2.56092e-06
2.69837e-06
-3.48713e-07
2.70415e-06
1.78226e-07
2.71305e-06
3.60423e-07
2.72355e-06
1.78914e-07
2.70827e-06
-3.36444e-07
2.70325e-06
-2.39581e-07
2.68828e-06
-3.55931e-07
2.70068e-06
2.51475e-07
2.69913e-06
1.07277e-07
2.71536e-06
2.98126e-07
2.71121e-06
1.34252e-07
2.71719e-06
7.73897e-08
2.71161e-06
1.37702e-08
2.7097e-06
-1.57289e-08
2.70874e-06
5.73963e-09
2.70287e-06
-1.74782e-08
2.69943e-06
-4.6747e-09
2.69301e-06
2.20648e-08
2.68634e-06
4.59443e-08
9.58001e-08
2.68483e-06
2.82756e-06
-3.39003e-07
2.83364e-06
1.72145e-07
2.8426e-06
3.51461e-07
2.85322e-06
1.68296e-07
2.83774e-06
-3.20964e-07
2.83249e-06
-2.34329e-07
2.81762e-06
-3.41059e-07
2.82985e-06
2.39241e-07
2.82854e-06
1.08589e-07
2.84467e-06
2.81995e-07
2.84096e-06
1.37963e-07
2.84634e-06
7.201e-08
2.84145e-06
1.86556e-08
2.83896e-06
-1.32334e-08
2.83799e-06
6.7053e-09
2.83211e-06
-1.15912e-08
2.82821e-06
-7.74342e-10
2.82232e-06
2.79492e-08
2.81594e-06
5.23285e-08
9.72022e-08
2.81454e-06
2.96297e-06
-3.29074e-07
2.96931e-06
1.65797e-07
2.97835e-06
3.42429e-07
2.98898e-06
1.57664e-07
2.97346e-06
-3.0545e-07
2.96791e-06
-2.28774e-07
2.95325e-06
-3.264e-07
2.96519e-06
2.27299e-07
2.96416e-06
1.09617e-07
2.98012e-06
2.66036e-07
2.97686e-06
1.41221e-07
2.98169e-06
6.71843e-08
2.97743e-06
2.2918e-08
2.97444e-06
-1.0248e-08
2.97341e-06
7.74074e-09
2.96748e-06
-5.66384e-09
2.9632e-06
3.50695e-09
2.95778e-06
3.33686e-08
2.95181e-06
5.82938e-08
9.86236e-08
2.95039e-06
3.10489e-06
-3.18956e-07
3.11146e-06
1.59222e-07
3.1206e-06
3.33289e-07
3.13114e-06
1.47131e-07
3.11573e-06
-2.90046e-07
3.10978e-06
-2.22826e-07
3.09545e-06
-3.12064e-07
3.10702e-06
2.1573e-07
3.10628e-06
1.10353e-07
3.12205e-06
2.50265e-07
3.11921e-06
1.44061e-07
3.12354e-06
6.28584e-08
3.11984e-06
2.66203e-08
3.1164e-06
-6.81154e-09
3.11528e-06
8.86032e-09
3.10929e-06
3.25676e-10
3.10466e-06
8.13867e-09
3.0997e-06
3.83228e-08
3.09423e-06
6.3769e-08
1.00099e-07
3.09275e-06
3.25363e-06
-3.08679e-07
3.26039e-06
1.52469e-07
3.26969e-06
3.23981e-07
3.28001e-06
1.36816e-07
3.26486e-06
-2.74892e-07
3.25842e-06
-2.16394e-07
3.24449e-06
-2.98133e-07
3.25566e-06
2.04559e-07
3.25518e-06
1.10831e-07
3.2708e-06
2.3465e-07
3.26832e-06
1.4654e-07
3.27218e-06
5.90015e-08
3.26902e-06
2.97761e-08
3.2651e-06
-2.88878e-09
3.26391e-06
1.00447e-08
3.25788e-06
6.36274e-09
3.25288e-06
1.31406e-08
3.24841e-06
4.27891e-08
3.24347e-06
6.8704e-08
1.01607e-07
3.24197e-06
3.40953e-06
-2.98272e-07
3.4164e-06
1.45592e-07
3.42595e-06
3.1443e-07
3.43593e-06
1.26843e-07
3.42115e-06
-2.60118e-07
3.41416e-06
-2.09399e-07
3.40068e-06
-2.84652e-07
3.41148e-06
1.93755e-07
3.41117e-06
1.11139e-07
3.42669e-06
2.19128e-07
3.42453e-06
1.48707e-07
3.42789e-06
5.56357e-08
3.42533e-06
3.23389e-08
3.42084e-06
1.59754e-09
3.41957e-06
1.13211e-08
3.41361e-06
1.23196e-08
3.40818e-06
1.85716e-08
3.40418e-06
4.67862e-08
3.39986e-06
7.30286e-08
1.03099e-07
3.39837e-06
3.57291e-06
-2.87771e-07
3.57985e-06
1.38656e-07
3.58972e-06
3.04551e-07
3.59923e-06
1.17339e-07
3.58495e-06
-2.45842e-07
3.57735e-06
-2.01799e-07
3.56431e-06
-2.71614e-07
3.57484e-06
1.8323e-07
3.57458e-06
1.11396e-07
3.59007e-06
2.03638e-07
3.58821e-06
1.50566e-07
3.59097e-06
5.28737e-08
3.58912e-06
3.41931e-08
3.58399e-06
6.72739e-09
3.58252e-06
1.27948e-08
3.57682e-06
1.80135e-08
3.57097e-06
2.44269e-08
3.56733e-06
5.04217e-08
3.56371e-06
7.66543e-08
1.04493e-07
3.56231e-06
3.74415e-06
-2.77212e-07
3.75107e-06
1.31736e-07
3.76136e-06
2.94254e-07
3.77028e-06
1.08423e-07
3.7566e-06
-2.32158e-07
3.74839e-06
-1.93595e-07
3.73574e-06
-2.58959e-07
3.74611e-06
1.72856e-07
3.74576e-06
1.11744e-07
3.76126e-06
1.88145e-07
3.75978e-06
1.52046e-07
3.76174e-06
5.09117e-08
3.76071e-06
3.52205e-08
3.75494e-06
1.25025e-08
3.75306e-06
1.46713e-08
3.74781e-06
2.32616e-08
3.74168e-06
3.05594e-08
3.73819e-06
5.39067e-08
3.73533e-06
7.95173e-08
1.05655e-07
3.73417e-06
3.92361e-06
-2.66635e-07
3.93044e-06
1.24911e-07
3.94124e-06
2.83448e-07
3.94947e-06
1.00191e-07
3.93643e-06
-2.19117e-07
3.92769e-06
-1.84851e-07
3.9153e-06
-2.46573e-07
3.92568e-06
1.62479e-07
3.92512e-06
1.12303e-07
3.94057e-06
1.72694e-07
3.93964e-06
1.52973e-07
3.94055e-06
5.00047e-08
3.9404e-06
3.53759e-08
3.93411e-06
1.87854e-08
3.93155e-06
1.7233e-08
3.92689e-06
2.79243e-08
3.92073e-06
3.67151e-08
3.91719e-06
5.74509e-08
3.91503e-06
8.16726e-08
1.06398e-07
3.91429e-06
4.1117e-06
-2.5608e-07
4.11834e-06
1.18269e-07
4.12974e-06
2.72049e-07
4.13722e-06
9.2711e-08
4.12482e-06
-2.0672e-07
4.11566e-06
-1.75686e-07
4.10338e-06
-2.343e-07
4.11392e-06
1.51944e-07
4.11307e-06
1.13145e-07
4.12834e-06
1.57431e-07
4.12823e-06
1.53085e-07
4.12784e-06
5.03882e-08
4.12846e-06
3.47531e-08
4.12194e-06
2.53053e-08
4.11845e-06
2.07319e-08
4.1144e-06
3.19711e-08
4.1085e-06
4.26111e-08
4.10481e-06
6.11443e-08
4.10315e-06
8.33309e-08
1.06549e-07
4.103e-06
4.30881e-06
-2.4559e-07
4.31518e-06
1.11897e-07
4.32725e-06
2.59986e-07
4.33396e-06
8.59988e-08
4.32214e-06
-1.94904e-07
4.31274e-06
-1.66279e-07
4.30039e-06
-2.21957e-07
4.3112e-06
1.41133e-07
4.31009e-06
1.14262e-07
4.32492e-06
1.42604e-07
4.32589e-06
1.52108e-07
4.32408e-06
5.22035e-08
4.32522e-06
3.3611e-08
4.3188e-06
3.17248e-08
4.31427e-06
2.52657e-08
4.31074e-06
3.54996e-08
4.30535e-06
4.7999e-08
4.30156e-06
6.49373e-08
4.30012e-06
8.47714e-08
1.06068e-07
4.3006e-06
4.51539e-06
-2.35204e-07
4.52141e-06
1.05878e-07
4.53418e-06
2.47215e-07
4.54017e-06
8.00083e-08
4.5288e-06
-1.83533e-07
4.51938e-06
-1.56858e-07
4.50678e-06
-2.09358e-07
4.51791e-06
1.29996e-07
4.51666e-06
1.15521e-07
4.53072e-06
1.28543e-07
4.53297e-06
1.49851e-07
4.52976e-06
5.54136e-08
4.53101e-06
3.23676e-08
4.52504e-06
3.769e-08
4.51955e-06
3.07581e-08
4.51637e-06
3.86817e-08
4.51164e-06
5.27218e-08
4.50788e-06
6.86965e-08
4.50647e-06
8.61835e-08
1.05134e-07
4.50741e-06
4.73187e-06
-2.24956e-07
4.73746e-06
1.00281e-07
4.75093e-06
2.33745e-07
4.75634e-06
7.45998e-08
4.74521e-06
-1.72401e-07
4.73602e-06
-1.47668e-07
4.72302e-06
-1.96361e-07
4.73443e-06
1.18591e-07
4.73327e-06
1.16674e-07
4.7462e-06
1.1562e-07
4.74977e-06
1.46276e-07
4.74541e-06
5.97797e-08
4.74628e-06
3.14942e-08
4.74105e-06
4.29262e-08
4.73483e-06
3.69704e-08
4.73178e-06
4.17302e-08
4.7278e-06
5.67018e-08
4.72421e-06
7.22862e-08
4.72278e-06
8.76177e-08
1.04043e-07
4.72387e-06
4.95872e-06
-2.14875e-07
4.96385e-06
9.51471e-08
4.97793e-06
2.19662e-07
4.983e-06
6.95325e-08
4.97184e-06
-1.61241e-07
4.96311e-06
-1.38935e-07
4.94965e-06
-1.82899e-07
4.96114e-06
1.07095e-07
4.96042e-06
1.17397e-07
4.97188e-06
1.04162e-07
4.97663e-06
1.41523e-07
4.97146e-06
6.49512e-08
4.97158e-06
3.13695e-08
4.96726e-06
4.7251e-08
4.96063e-06
4.35976e-08
4.95751e-06
4.48483e-08
4.9543e-06
5.99098e-08
4.95097e-06
7.56168e-08
4.94957e-06
8.90237e-08
1.03036e-07
4.95057e-06
5.19642e-06
-2.0498e-07
5.20109e-06
9.04775e-08
5.21563e-06
2.05127e-07
5.22069e-06
6.44671e-08
5.20919e-06
-1.49743e-07
5.20109e-06
-1.30832e-07
5.1872e-06
-1.69006e-07
5.19848e-06
9.58094e-08
5.19853e-06
1.1735e-07
5.20831e-06
9.43826e-08
5.21392e-06
1.35914e-07
5.20833e-06
7.05418e-08
5.2075e-06
3.21934e-08
5.20417e-06
5.05888e-08
5.19744e-06
5.03211e-08
5.19409e-06
4.82049e-08
5.19164e-06
6.23597e-08
5.18865e-06
7.86055e-08
5.1873e-06
9.03726e-08
1.02176e-07
5.18816e-06
5.44549e-06
-1.95278e-07
5.44974e-06
8.62199e-08
5.46447e-06
1.90403e-07
5.46997e-06
5.89632e-08
5.45782e-06
-1.3759e-07
5.45042e-06
-1.23436e-07
5.4363e-06
-1.54884e-07
5.44692e-06
8.51906e-08
5.44801e-06
1.16264e-07
5.45612e-06
8.62723e-08
5.46218e-06
1.29848e-07
5.45646e-06
7.62647e-08
5.45469e-06
3.39609e-08
5.45231e-06
5.29674e-08
5.4458e-06
5.68325e-08
5.44205e-06
5.19554e-08
5.44029e-06
6.4117e-08
5.43777e-06
8.11334e-08
5.43644e-06
9.16968e-08
1.01396e-07
5.43722e-06
5.70644e-06
-1.8576e-07
5.71039e-06
8.22677e-08
5.72496e-06
1.75835e-07
5.73135e-06
5.2574e-08
5.71832e-06
-1.2456e-07
5.71158e-06
-1.16695e-07
5.69761e-06
-1.40913e-07
5.70701e-06
7.57846e-08
5.70922e-06
1.14052e-07
5.71589e-06
7.96103e-08
5.72203e-06
1.23704e-07
5.71641e-06
8.18858e-08
5.71385e-06
3.6519e-08
5.7123e-06
5.45187e-08
5.70623e-06
6.28977e-08
5.70201e-06
5.61779e-08
5.70077e-06
6.53579e-08
5.69888e-06
8.3021e-08
5.69755e-06
9.30296e-08
1.00645e-07
5.6983e-06
5.97984e-06
-1.76405e-07
5.98364e-06
7.84645e-08
5.99763e-06
1.61846e-07
6.00528e-06
4.49291e-08
5.99134e-06
-1.10621e-07
5.98501e-06
-1.10372e-07
5.97171e-06
-1.27607e-07
5.97944e-06
6.80573e-08
5.98256e-06
1.10929e-07
5.98817e-06
7.40041e-08
5.9941e-06
1.17774e-07
5.98875e-06
8.7229e-08
5.98557e-06
3.97053e-08
5.98471e-06
5.53738e-08
5.97932e-06
6.82914e-08
5.9746e-06
6.08958e-08
5.97359e-06
6.63693e-08
5.97253e-06
8.4077e-08
5.97125e-06
9.43163e-08
9.99648e-08
5.97193e-06
6.26626e-06
-1.67179e-07
6.2701e-06
7.46276e-08
6.28308e-06
1.48863e-07
6.29217e-06
3.58377e-08
6.27758e-06
-9.60264e-08
6.27123e-06
-1.04026e-07
6.25911e-06
-1.1549e-07
6.26492e-06
6.22483e-08
6.26853e-06
1.07326e-07
6.27341e-06
6.91244e-08
6.27904e-06
1.12138e-07
6.27408e-06
9.21915e-08
6.27038e-06
4.34013e-08
6.27012e-06
5.56374e-08
6.26562e-06
7.27918e-08
6.26049e-06
6.60286e-08
6.25937e-06
6.74832e-08
6.25921e-06
8.42371e-08
6.25817e-06
9.53603e-08
9.94409e-08
6.25869e-06
6.56633e-06
-1.58035e-07
6.57039e-06
7.05677e-08
6.582e-06
1.37252e-07
6.59249e-06
2.53463e-08
6.57784e-06
-8.13821e-08
6.57083e-06
-9.70167e-08
6.56029e-06
-1.04945e-07
6.56429e-06
5.82493e-08
6.56774e-06
1.03878e-07
6.57212e-06
6.47426e-08
6.57762e-06
1.06639e-07
6.57313e-06
9.668e-08
6.56891e-06
4.76224e-08
6.56911e-06
5.54306e-08
6.56569e-06
7.6217e-08
6.56035e-06
7.13655e-08
6.55884e-06
6.89933e-08
6.55945e-06
8.36287e-08
6.55891e-06
9.59004e-08
9.90824e-08
6.55927e-06
6.88068e-06
-1.48922e-07
6.88513e-06
6.61177e-08
6.89512e-06
1.2726e-07
6.90676e-06
1.37057e-08
6.8929e-06
-6.75259e-08
6.88456e-06
-8.86725e-08
6.87567e-06
-9.60565e-08
6.87835e-06
5.55728e-08
6.881e-06
1.01224e-07
6.88502e-06
6.07272e-08
6.89069e-06
1.00961e-07
6.88666e-06
1.00719e-07
6.88185e-06
5.24298e-08
6.88231e-06
5.4973e-08
6.8801e-06
7.84227e-08
6.87486e-06
7.66096e-08
6.87277e-06
7.10787e-08
6.87386e-06
8.25385e-08
6.87404e-06
9.57241e-08
9.87933e-08
6.87433e-06
7.21e-06
-1.39785e-07
7.21495e-06
6.11721e-08
7.22324e-06
1.18961e-07
7.23559e-06
1.36319e-09
7.22351e-06
-5.54447e-08
7.21326e-06
-7.84227e-08
7.20576e-06
-8.85561e-08
7.20785e-06
5.34768e-08
7.20929e-06
9.97873e-08
7.21275e-06
5.72672e-08
7.21892e-06
9.47922e-08
7.21548e-06
1.04159e-07
7.20998e-06
5.79221e-08
7.21037e-06
5.45867e-08
7.20944e-06
7.93572e-08
7.20464e-06
8.141e-08
7.20195e-06
7.37672e-08
7.20316e-06
8.13217e-08
7.20415e-06
9.47423e-08
9.84115e-08
7.20453e-06
7.55501e-06
-1.30573e-07
7.56049e-06
5.56915e-08
7.5672e-06
1.12258e-07
7.57965e-06
-1.10881e-08
7.57025e-06
-4.60413e-08
7.55783e-06
-6.60094e-08
7.55118e-06
-8.19046e-08
7.55341e-06
5.12506e-08
7.55366e-06
9.95351e-08
7.55599e-06
5.49352e-08
7.5628e-06
8.79812e-08
7.56032e-06
1.0664e-07
7.55415e-06
6.40962e-08
7.5541e-06
5.46388e-08
7.55433e-06
7.91241e-08
7.55033e-06
8.54053e-08
7.54715e-06
7.69492e-08
7.54816e-06
8.03171e-08
7.54989e-06
9.30051e-08
9.77624e-08
7.55054e-06
7.91648e-06
-1.21241e-07
7.92255e-06
4.9621e-08
7.92784e-06
1.06967e-07
7.93968e-06
-2.29297e-08
7.93349e-06
-3.98459e-08
7.91924e-06
-5.17619e-08
7.91269e-06
-7.53527e-08
7.91557e-06
4.83631e-08
7.91501e-06
1.00105e-07
7.91569e-06
5.42507e-08
7.92289e-06
8.07854e-08
7.92181e-06
1.07716e-07
7.9152e-06
7.07003e-08
7.91432e-06
5.55186e-08
7.91549e-06
7.79628e-08
7.9126e-06
8.82893e-08
7.90916e-06
8.03943e-08
7.90968e-06
7.97918e-08
7.91201e-06
9.06763e-08
9.66906e-08
7.91308e-06
8.2952e-06
-1.11755e-07
8.30196e-06
4.28557e-08
8.30605e-06
1.02881e-07
8.31646e-06
-3.33446e-08
8.31366e-06
-3.7049e-08
8.29841e-06
-3.65116e-08
8.29108e-06
-6.80225e-08
8.29489e-06
4.45605e-08
8.29408e-06
1.00916e-07
8.29289e-06
5.54404e-08
8.29989e-06
7.37769e-08
8.30052e-06
1.07096e-07
8.29396e-06
7.72587e-08
8.29201e-06
5.74688e-08
8.29371e-06
7.62601e-08
8.29211e-06
8.98902e-08
8.28873e-06
8.37732e-08
8.28862e-06
7.98993e-08
8.29127e-06
8.80252e-08
9.50522e-08
8.29291e-06
8.69201e-06
-1.021e-07
8.69956e-06
3.53e-08
8.70267e-06
9.97742e-08
8.71082e-06
-4.14982e-08
8.71135e-06
-3.7571e-08
8.69628e-06
-2.14441e-08
8.68731e-06
-5.90578e-08
8.69195e-06
3.99253e-08
8.69158e-06
1.01284e-07
8.68863e-06
5.83945e-08
8.69474e-06
6.76671e-08
8.69709e-06
1.04744e-07
8.69111e-06
8.32402e-08
8.68813e-06
6.04403e-08
8.68988e-06
7.45139e-08
8.68955e-06
9.02228e-08
8.68664e-06
8.66851e-08
8.68589e-06
8.06409e-08
8.68851e-06
8.54051e-08
9.27483e-08
8.69082e-06
9.10781e-06
-9.22871e-08
9.11613e-06
2.69721e-08
9.11857e-06
9.73387e-08
9.12376e-06
-4.66909e-08
9.12726e-06
-4.10656e-08
9.11368e-06
-7.86671e-09
9.1025e-06
-4.78812e-08
9.10746e-06
3.49671e-08
9.10818e-06
1.00566e-07
9.1039e-06
6.26752e-08
9.10847e-06
6.30986e-08
9.11225e-06
1.00959e-07
9.10739e-06
8.81028e-08
9.10363e-06
6.41977e-08
9.105e-06
7.31511e-08
9.10572e-06
8.94949e-08
9.10361e-06
8.87993e-08
9.10244e-06
8.181e-08
9.10466e-06
8.31816e-08
8.98175e-08
9.10759e-06
9.54353e-06
-8.23599e-08
9.55251e-06
1.79971e-08
9.55463e-06
9.52125e-08
9.55651e-06
-4.85696e-08
9.56225e-06
-4.68011e-08
9.55133e-06
3.0551e-09
9.53787e-06
-3.44292e-08
9.54227e-06
3.0569e-08
9.54458e-06
9.826e-08
9.53963e-06
6.76225e-08
9.54223e-06
6.05004e-08
9.54694e-06
9.62464e-08
9.54353e-06
9.1512e-08
9.53937e-06
6.83633e-08
9.54013e-06
7.23927e-08
9.54156e-06
8.80557e-08
9.5404e-06
8.99653e-08
9.53915e-06
8.30598e-08
9.54076e-06
8.15736e-08
8.65068e-08
9.54407e-06
1.00002e-05
-7.24125e-08
1.00095e-05
8.64115e-09
1.00118e-05
9.29382e-08
1.00103e-05
-4.70623e-08
1.00173e-05
-5.37959e-08
1.00098e-05
1.05276e-08
9.99469e-06
-1.92831e-08
9.99753e-06
2.77251e-08
1.00015e-05
9.42899e-08
9.99666e-06
7.246e-08
9.99724e-06
5.99259e-08
1.00022e-05
9.12834e-08
1.00003e-05
9.3394e-08
9.99622e-06
7.24669e-08
9.99631e-06
7.22962e-08
9.99812e-06
8.62492e-08
9.99787e-06
9.021e-08
9.99687e-06
8.40657e-08
9.99789e-06
8.05461e-08
8.32056e-08
1.00012e-05
1.04788e-05
-6.25893e-08
1.04881e-05
-6.67977e-10
1.04911e-05
8.99368e-08
1.04864e-05
-4.23162e-08
1.04934e-05
-6.08396e-08
1.04898e-05
1.41368e-08
1.04741e-05
-3.55497e-09
1.04746e-05
2.7234e-08
1.04798e-05
8.90799e-08
1.04758e-05
7.64214e-08
1.04747e-05
6.1072e-08
1.04791e-05
8.6836e-08
1.04787e-05
9.38038e-08
1.0475e-05
7.61479e-08
1.04746e-05
7.27541e-08
1.04765e-05
8.43463e-08
1.0477e-05
8.96739e-08
1.04765e-05
8.46294e-08
1.04771e-05
7.98837e-08
8.02487e-08
1.04801e-05
1.09805e-05
-5.30846e-08
1.09892e-05
-9.37593e-09
1.09936e-05
8.55769e-08
1.0986e-05
-3.47008e-08
1.09917e-05
-6.6536e-08
1.0992e-05
1.37492e-08
1.09771e-05
1.14171e-08
1.09748e-05
2.9558e-08
1.09804e-05
8.33851e-08
1.0978e-05
7.89093e-08
1.09756e-05
6.34315e-08
1.09791e-05
8.33867e-08
1.09797e-05
9.31387e-08
1.09768e-05
7.90725e-08
1.0976e-05
7.35881e-08
1.09778e-05
8.25149e-08
1.09789e-05
8.85353e-08
1.09789e-05
8.46852e-08
1.09794e-05
7.93315e-08
7.7785e-08
1.09819e-05
1.15064e-05
-4.4118e-08
1.15139e-05
-1.6901e-08
1.15201e-05
7.93821e-08
1.15103e-05
-2.49163e-08
1.15133e-05
-6.94872e-08
1.15174e-05
9.6121e-09
1.15046e-05
2.42493e-08
1.14994e-05
3.47007e-08
1.15047e-05
7.81539e-08
1.15038e-05
7.97445e-08
1.1501e-05
6.62696e-08
1.15033e-05
8.1109e-08
1.15045e-05
9.19255e-08
1.15024e-05
8.112e-08
1.15015e-05
7.45117e-08
1.15032e-05
8.08804e-08
1.15047e-05
8.69436e-08
1.15052e-05
8.42625e-08
1.15058e-05
7.86913e-08
7.57713e-08
1.15078e-05
1.20576e-05
-3.58964e-08
1.20634e-05
-2.27477e-08
1.20716e-05
7.12079e-08
1.20607e-05
-1.39555e-08
1.20599e-05
-6.87368e-08
1.20669e-05
2.63241e-09
1.20574e-05
3.37143e-08
1.20501e-05
4.20668e-08
1.20538e-05
7.44006e-08
1.20544e-05
7.91617e-08
1.20519e-05
6.87545e-08
1.2053e-05
8.00061e-08
1.20544e-05
9.05385e-08
1.20531e-05
8.24444e-08
1.20523e-05
7.52486e-08
1.20538e-05
7.94326e-08
1.20557e-05
8.50639e-08
1.20565e-05
8.34034e-08
1.20574e-05
7.78593e-08
7.4049e-08
1.20591e-05
1.26353e-05
-2.85914e-08
1.26391e-05
-2.65962e-08
1.2649e-05
6.13376e-08
1.26381e-05
-3.0038e-09
1.26333e-05
-6.40216e-08
1.26415e-05
-5.53518e-09
1.26363e-05
3.8949e-08
1.26278e-05
5.0581e-08
1.26293e-05
7.28228e-08
1.26308e-05
7.7653e-08
1.26291e-05
7.04826e-08
1.26296e-05
7.95595e-08
1.26307e-05
8.93812e-08
1.263e-05
8.3181e-08
1.26295e-05
7.57739e-08
1.26309e-05
7.79969e-08
1.26329e-05
8.30301e-08
1.26342e-05
8.21787e-08
1.26352e-05
7.68106e-08
7.24387e-08
1.26368e-05
1.32407e-05
-2.23168e-08
1.32425e-05
-2.84052e-08
1.32534e-05
5.04237e-08
1.32436e-05
6.81545e-09
1.32353e-05
-5.5727e-08
1.32427e-05
-1.29452e-08
1.32419e-05
3.97749e-08
1.32336e-05
5.88112e-08
1.32329e-05
7.35266e-08
1.32345e-05
7.61094e-08
1.32337e-05
7.12589e-08
1.3234e-05
7.92419e-08
1.32349e-05
8.84721e-08
1.32345e-05
8.36241e-08
1.32342e-05
7.60665e-08
1.32356e-05
7.65669e-08
1.32379e-05
8.0774e-08
1.32394e-05
8.06813e-08
1.32406e-05
7.55788e-08
7.08008e-08
1.32422e-05
1.3875e-05
-1.71229e-08
1.38748e-05
-2.82694e-08
1.3886e-05
3.9222e-08
1.38782e-05
1.4677e-08
1.38671e-05
-4.46844e-08
1.38721e-05
-1.79224e-08
1.3875e-05
3.68723e-08
1.38687e-05
6.51454e-08
1.38659e-05
7.62569e-08
1.38668e-05
7.53004e-08
1.38669e-05
7.11124e-08
1.38674e-05
7.87892e-08
1.38683e-05
8.75195e-08
1.3868e-05
8.39427e-08
1.38678e-05
7.62161e-08
1.38692e-05
7.51769e-08
1.38717e-05
7.83208e-08
1.38735e-05
7.88297e-08
1.38749e-05
7.42533e-08
6.90809e-08
1.38766e-05
1.45395e-05
-1.29923e-08
1.45376e-05
-2.6351e-08
1.45484e-05
2.84401e-08
1.45429e-05
2.02127e-08
1.45303e-05
-3.20994e-08
1.45318e-05
-1.94448e-08
1.45371e-05
3.15871e-08
1.45337e-05
6.85415e-08
1.45299e-05
8.00393e-08
1.45295e-05
7.56615e-08
1.45299e-05
7.07143e-08
1.4531e-05
7.77383e-08
1.45321e-05
8.6441e-08
1.4532e-05
8.39782e-08
1.45319e-05
7.63474e-08
1.45332e-05
7.38747e-08
1.45357e-05
7.58132e-08
1.4538e-05
7.65472e-08
1.45395e-05
7.27798e-08
6.73554e-08
1.45412e-05
1.52357e-05
-9.83381e-09
1.52323e-05
-2.29721e-08
1.5242e-05
1.88248e-08
1.52388e-05
2.33303e-08
1.52259e-05
-1.91793e-08
1.52238e-05
-1.73495e-08
1.52296e-05
2.57849e-08
1.52295e-05
6.8698e-08
1.52261e-05
8.34181e-08
1.52245e-05
7.73033e-08
1.52246e-05
7.0587e-08
1.52261e-05
7.62426e-08
1.52276e-05
8.49455e-08
1.52279e-05
8.36591e-08
1.52279e-05
7.63515e-08
1.52291e-05
7.26951e-08
1.52314e-05
7.34287e-08
1.52341e-05
7.39145e-08
1.52358e-05
7.10151e-08
6.56704e-08
1.52375e-05
1.5965e-05
-7.48585e-09
1.59606e-05
-1.85573e-08
1.59683e-05
1.10494e-08
1.59675e-05
2.41734e-08
1.59552e-05
-6.89787e-09
1.59502e-05
-1.22981e-08
1.59547e-05
2.12636e-08
1.59574e-05
6.60049e-08
1.59554e-05
8.53823e-08
1.5953e-05
7.96719e-08
1.59527e-05
7.0964e-08
1.59541e-05
7.47994e-08
1.59562e-05
8.28832e-08
1.5957e-05
8.28672e-08
1.59572e-05
7.61304e-08
1.59584e-05
7.1533e-08
1.59606e-05
7.12162e-08
1.59633e-05
7.12e-08
1.59655e-05
6.88439e-08
6.39731e-08
1.59671e-05
1.67289e-05
-5.73559e-09
1.67239e-05
-1.36457e-08
1.67294e-05
5.63334e-09
1.67302e-05
2.33084e-08
1.67195e-05
3.82966e-09
1.67123e-05
-5.07741e-09
1.67146e-05
1.89114e-08
1.67191e-05
6.15686e-08
1.6719e-05
8.5432e-08
1.67169e-05
8.18056e-08
1.67158e-05
7.20531e-08
1.67171e-05
7.3533e-08
1.67193e-05
8.06508e-08
1.67208e-05
8.13803e-08
1.67213e-05
7.56137e-08
1.67225e-05
7.03202e-08
1.67247e-05
6.90414e-08
1.67273e-05
6.85751e-08
1.67298e-05
6.63857e-08
6.20748e-08
1.67317e-05
1.7529e-05
-4.37134e-09
1.75242e-05
-8.86057e-09
1.75271e-05
2.76026e-09
1.75288e-05
2.16124e-08
1.75201e-05
1.25148e-08
1.75117e-05
3.33593e-09
1.75117e-05
1.88727e-08
1.75164e-05
5.68551e-08
1.75184e-05
8.34782e-08
1.75171e-05
8.30584e-08
1.75158e-05
7.34366e-08
1.75166e-05
7.26606e-08
1.75188e-05
7.8457e-08
1.75208e-05
7.94444e-08
1.75218e-05
7.45493e-08
1.75231e-05
6.90543e-08
1.75253e-05
6.68299e-08
1.75279e-05
6.59504e-08
1.75304e-05
6.38634e-08
5.98843e-08
1.75326e-05
1.83672e-05
-3.22962e-09
1.83629e-05
-4.53325e-09
1.83635e-05
2.08972e-09
1.83652e-05
1.9923e-08
1.83586e-05
1.91956e-08
1.83501e-05
1.17966e-08
1.8348e-05
2.09641e-08
1.83519e-05
5.29331e-08
1.83554e-05
8.00224e-08
1.83553e-05
8.31756e-08
1.83542e-05
7.45464e-08
1.83546e-05
7.2222e-08
1.83567e-05
7.63704e-08
1.83588e-05
7.73738e-08
1.83603e-05
7.30084e-08
1.83618e-05
6.75304e-08
1.8364e-05
6.46437e-08
1.83668e-05
6.31977e-08
1.83693e-05
6.12695e-08
5.7527e-08
1.83717e-05
1.92454e-05
-2.20132e-09
1.92415e-05
-7.13226e-10
1.92406e-05
2.98389e-09
1.92417e-05
1.89064e-08
1.92367e-05
2.41231e-08
1.92291e-05
1.94449e-08
1.92254e-05
2.46131e-08
1.92281e-05
5.0282e-08
1.9232e-05
7.61314e-08
1.92331e-05
8.20914e-08