/*--------------------------------*- C++ -*----------------------------------*\
| =========                 |                                                 |
| \\      /  F ield         | OpenFOAM: The Open Source CFD Toolbox           |
|  \\    /   O peration     | Version:  3.0.1                                 |
|   \\  /    A nd           | Web:      www.OpenFOAM.org                      |
|    \\/     M anipulation  |                                                 |
\*---------------------------------------------------------------------------*/
FoamFile
{
    version     2.0;
    format      ascii;
    class       volVectorField;
    location    "0.9";
    object      U;
}
// * * * * * * * * * * * * * * * * * * * * * * * * * * * * * * * * * * * * * //

dimensions      [0 1 -1 0 0 0 0];

internalField   nonuniform List<vector> 
9600
(
(0.838911 -0.00389279 0)
(1.16341 0.00415466 0)
(0.892757 0.00411331 0)
(1.13424 0.000395281 0)
(0.805111 -0.0052727 0)
(1.15801 -0.000791025 0)
(0.891136 -0.00898484 0)
(1.13073 0.00739865 0)
(0.900172 0.000595658 0)
(1.12823 0.00945119 0)
(0.888257 -0.00024152 0)
(1.10814 0.00451346 0)
(0.889801 -0.00288447 0)
(1.11702 0.00162372 0)
(0.898808 -0.00201875 0)
(1.12279 -0.00125038 0)
(0.89363 -0.00439215 0)
(1.11975 -0.00360101 0)
(0.877222 -0.00552074 0)
(1.12135 -0.00435956 0)
(0.850358 -0.00399194 0)
(1.15423 0.00392026 0)
(0.905664 0.00415042 0)
(1.12203 0.00157131 0)
(0.828119 -0.00568227 0)
(1.14224 -0.00152863 0)
(0.910104 -0.00893699 0)
(1.11907 0.0074824 0)
(0.923065 0.000512604 0)
(1.11058 0.00968301 0)
(0.922066 -5.66845e-05 0)
(1.08234 0.00467402 0)
(0.932685 -0.00313963 0)
(1.07844 0.00153335 0)
(0.95389 -0.00217844 0)
(1.06711 -0.00114603 0)
(0.96807 -0.00404191 0)
(1.03987 -0.00360924 0)
(0.979961 -0.00459903 0)
(1.00471 -0.00464938 0)
(0.871641 -0.0041111 0)
(1.13397 0.00365765 0)
(0.928211 0.00430761 0)
(1.10027 0.00224125 0)
(0.865823 -0.00607229 0)
(1.11348 -0.00213439 0)
(0.940086 -0.00882977 0)
(1.09441 0.00744518 0)
(0.957042 0.000556108 0)
(1.08001 0.00983361 0)
(0.963136 0.000317967 0)
(1.04753 0.00456397 0)
(0.974153 -0.00305412 0)
(1.03741 0.00113354 0)
(0.993039 -0.00190683 0)
(1.02653 -0.00148489 0)
(1.00103 -0.00333646 0)
(1.00739 -0.00397316 0)
(0.998818 -0.0035502 0)
(0.989428 -0.00380993 0)
(0.899504 -0.00420538 0)
(1.10504 0.0033838 0)
(0.953527 0.00447475 0)
(1.07323 0.00277664 0)
(0.907719 -0.00626479 0)
(1.07883 -0.00269971 0)
(0.969979 -0.00872073 0)
(1.06457 0.00727525 0)
(0.985745 0.000744374 0)
(1.04952 0.00976996 0)
(0.990081 0.000767578 0)
(1.02166 0.00439863 0)
(0.993943 -0.00284252 0)
(1.01354 0.000763611 0)
(1.00361 -0.00169939 0)
(1.00981 -0.0016653 0)
(1.00373 -0.00290967 0)
(0.999835 -0.00389538 0)
(0.994719 -0.00296265 0)
(0.988126 -0.00287808 0)
(0.929041 -0.00426557 0)
(1.07302 0.00308014 0)
(0.975274 0.00464819 0)
(1.04681 0.00316931 0)
(0.944163 -0.00633491 0)
(1.04735 -0.00322787 0)
(0.990932 -0.00862487 0)
(1.03868 0.00708466 0)
(1.00193 0.000966618 0)
(1.02752 0.00967418 0)
(1.00109 0.00117514 0)
(1.00833 0.00432077 0)
(0.999176 -0.00263565 0)
(1.00323 0.000525474 0)
(1.00246 -0.00156691 0)
(1.00308 -0.00175205 0)
(1.00052 -0.0025516 0)
(0.996434 -0.00378 0)
(0.991472 -0.00233947 0)
(0.985256 -0.00214821 0)
(0.955386 -0.0042931 0)
(1.04405 0.00279872 0)
(0.989928 0.00481085 0)
(1.02589 0.00341491 0)
(0.970311 -0.00633668 0)
(1.02491 -0.00364796 0)
(1.00102 -0.00855225 0)
(1.02076 0.00692802 0)
(1.00754 0.00116693 0)
(1.01451 0.00963589 0)
(1.00336 0.00149705 0)
(1.00305 0.0042898 0)
(0.999906 -0.00242814 0)
(0.999516 0.000361501 0)
(1.00008 -0.00143911 0)
(0.999899 -0.00182831 0)
(0.998041 -0.00224668 0)
(0.994479 -0.00362903 0)
(0.989971 -0.00180115 0)
(0.983711 -0.00138831 0)
(0.975429 -0.00429198 0)
(1.02221 0.00258433 0)
(0.997379 0.0049328 0)
(1.01234 0.00353959 0)
(0.986402 -0.00630363 0)
(1.01218 -0.00393337 0)
(1.00339 -0.00849548 0)
(1.00976 0.0067995 0)
(1.00739 0.0013362 0)
(1.00747 0.00961507 0)
(1.0028 0.00173671 0)
(1.0015 0.00424579 0)
(1.00037 -0.00221591 0)
(0.998764 0.000228274 0)
(0.998976 -0.00129651 0)
(0.998631 -0.00191261 0)
(0.996715 -0.00197268 0)
(0.993704 -0.00345219 0)
(0.989428 -0.00133636 0)
(0.983604 -0.000578466 0)
(0.988473 -0.00427097 0)
(1.00839 0.00244574 0)
(0.999821 0.00500391 0)
(1.00516 0.00357619 0)
(0.995246 -0.00626204 0)
(1.00646 -0.00410218 0)
(1.0022 -0.00842638 0)
(1.00306 0.00667783 0)
(1.00514 0.00147587 0)
(1.00362 0.0095645 0)
(1.00196 0.00191759 0)
(1.0014 0.00415675 0)
(1.00119 -0.00200322 0)
(0.999278 0.000108138 0)
(0.998964 -0.00113513 0)
(0.998449 -0.00198105 0)
(0.996255 -0.00171464 0)
(0.99356 -0.00323572 0)
(0.989509 -0.000941102 0)
(0.984214 0.000265645 0)
(0.995686 -0.00423923 0)
(1.001 0.0023701 0)
(0.999917 0.00503168 0)
(1.00221 0.00354833 0)
(0.999767 -0.00622187 0)
(1.00445 -0.00418578 0)
(1.00015 -0.0083208 0)
(0.998706 0.00655125 0)
(1.00263 0.00158974 0)
(1.00144 0.00946418 0)
(1.00146 0.00205635 0)
(1.00175 0.00401859 0)
(1.00209 -0.00179116 0)
(1.00014 -5.50379e-06 0)
(0.999465 -0.000955697 0)
(0.99875 -0.00201737 0)
(0.996334 -0.00147522 0)
(0.993738 -0.00296063 0)
(0.989948 -0.000613675 0)
(0.985157 0.00108001 0)
(0.998996 -0.00420117 0)
(0.997599 0.00233438 0)
(0.999492 0.00502858 0)
(1.00157 0.00347604 0)
(1.00196 -0.00617847 0)
(1.00381 -0.00421198 0)
(0.998325 -0.00817165 0)
(0.995779 0.00641688 0)
(1.0006 0.00168228 0)
(1.00023 0.00930944 0)
(1.00128 0.00216664 0)
(1.00217 0.00384156 0)
(1.0028 -0.00157608 0)
(1.00087 -0.000119071 0)
(1.00003 -0.000765266 0)
(0.999171 -0.0020182 0)
(0.996666 -0.00126207 0)
(0.994107 -0.00262329 0)
(0.990575 -0.00034369 0)
(0.986254 0.00183614 0)
(1.00017 -0.00415695 0)
(0.996179 0.00231512 0)
(0.999289 0.00500471 0)
(1.00203 0.00337797 0)
(1.00294 -0.00612187 0)
(1.00341 -0.00420086 0)
(0.996945 -0.007985 0)
(0.993868 0.00627266 0)
(0.999227 0.00175773 0)
(0.999662 0.00910588 0)
(1.0013 0.00226125 0)
(1.00249 0.00363858 0)
(1.00321 -0.00135689 0)
(1.00132 -0.000231156 0)
(1.00041 -0.00057625 0)
(0.999524 -0.00198263 0)
(0.997054 -0.00108049 0)
(0.99457 -0.00223392 0)
(0.991293 -0.000109855 0)
(0.987398 0.0025165 0)
(1.00038 -0.00410547 0)
(0.995554 0.00229713 0)
(0.999369 0.00496354 0)
(1.0029 0.00326665 0)
(1.0033 -0.00604337 0)
(1.00292 -0.004167 0)
(0.995951 -0.00777122 0)
(0.99271 0.00611664 0)
(0.998444 0.00182052 0)
(0.999513 0.00886126 0)
(1.00142 0.00235456 0)
(1.00269 0.00342105 0)
(1.00335 -0.00113249 0)
(1.00149 -0.00033604 0)
(1.00057 -0.000402132 0)
(0.999739 -0.00191178 0)
(0.997394 -0.000931774 0)
(0.995035 -0.00181084 0)
(0.992027 8.7042e-05 0)
(0.988514 0.00310393 0)
(1.00028 -0.00404591 0)
(0.995206 0.00227309 0)
(0.999587 0.00490589 0)
(1.00383 0.00314942 0)
(1.00338 -0.00593768 0)
(1.00235 -0.00411955 0)
(0.995263 -0.00754112 0)
(0.992075 0.00594663 0)
(0.99808 0.00187429 0)
(0.9996 0.00858399 0)
(1.00158 0.00245372 0)
(1.0028 0.00319896 0)
(1.00332 -0.000903181 0)
(1.00147 -0.000429686 0)
(1.00054 -0.000250197 0)
(0.999822 -0.00180779 0)
(0.997647 -0.000814715 0)
(0.995441 -0.00137316 0)
(0.992713 0.000275876 0)
(0.98955 0.00358789 0)
(1.00013 -0.00397828 0)
(0.994972 0.00224079 0)
(0.999817 0.00483325 0)
(1.0046 0.00302928 0)
(1.00334 -0.005804 0)
(1.00179 -0.00406334 0)
(0.994816 -0.007303 0)
(0.991777 0.00576142 0)
(0.997966 0.00192175 0)
(0.999782 0.00828293 0)
(1.00172 0.00255685 0)
(1.00284 0.00297975 0)
(1.0032 -0.000674494 0)
(1.00136 -0.000504186 0)
(1.00042 -0.000127773 0)
(0.999817 -0.00167011 0)
(0.99782 -0.000727077 0)
(0.995762 -0.000939529 0)
(0.993313 0.000498581 0)
(0.990472 0.00396908 0)
(1.00001 -0.00390328 0)
(0.994821 0.00220044 0)
(1 0.00474819 0)
(1.00516 0.00290661 0)
(1.00328 -0.00564495 0)
(1.00133 -0.00400131 0)
(0.99456 -0.00706068 0)
(0.991685 0.00556201 0)
(0.997981 0.00196599 0)
(0.999974 0.00796234 0)
(1.0018 0.00266765 0)
(1.00284 0.00276756 0)
(1.00305 -0.000451172 0)
(1.00125 -0.000554693 0)
(1.00028 -3.24101e-05 0)
(0.999767 -0.00150512 0)
(0.997935 -0.000654503 0)
(0.996005 -0.000525792 0)
(0.993814 0.000753261 0)
(0.991274 0.00425515 0)
(0.999941 -0.00382205 0)
(0.99475 0.00215317 0)
(1.00013 0.00465396 0)
(1.00548 0.0027809 0)
(1.00321 -0.00546505 0)
(1.00101 -0.00393512 0)
(0.994453 -0.00681553 0)
(0.991712 0.0053499 0)
(0.998047 0.00200708 0)
(1.00013 0.00762813 0)
(1.00183 0.00278301 0)
(1.00281 0.00256559 0)
(1.00291 -0.000237441 0)
(1.00117 -0.000579236 0)
(1.00016 4.22395e-05 0)
(0.999707 -0.00132219 0)
(0.998019 -0.000580048 0)
(0.996189 -0.000143008 0)
(0.994227 0.00104003 0)
(0.991968 0.00446336 0)
(0.99991 -0.00373575 0)
(0.99475 0.00210015 0)
(1.0002 0.00455382 0)
(1.00561 0.00265171 0)
(1.00314 -0.00526942 0)
(1.0008 -0.00386575 0)
(0.994461 -0.00656697 0)
(0.991811 0.00512952 0)
(0.998124 0.00204461 0)
(1.00025 0.00728545 0)
(1.0018 0.00289469 0)
(1.00276 0.00237735 0)
(1.00279 -3.88936e-05 0)
(1.00111 -0.000575315 0)
(1.00006 9.74553e-05 0)
(0.999652 -0.00112795 0)
(0.99809 -0.000493135 0)
(0.99634 0.000201852 0)
(0.994575 0.00134942 0)
(0.992575 0.00461432 0)
(0.999901 -0.00364534 0)
(0.994804 0.00204231 0)
(1.00024 0.00445029 0)
(1.00561 0.00251902 0)
(1.00306 -0.00506273 0)
(1.00068 -0.00379362 0)
(0.994553 -0.00631559 0)
(0.991952 0.00490384 0)
(0.998197 0.00208013 0)
(1.00032 0.00693794 0)
(1.00171 0.00300151 0)
(1.00269 0.00220408 0)
(1.00267 0.000143462 0)
(1.00108 -0.000546816 0)
(0.999997 0.000138021 0)
(0.999607 -0.000930254 0)
(0.998159 -0.000386624 0)
(0.996477 0.000510477 0)
(0.994878 0.00166609 0)
(0.993121 0.00472303 0)
(0.999905 -0.00355164 0)
(0.994897 0.0019806 0)
(1.00026 0.00434487 0)
(1.00552 0.0023835 0)
(1.00296 -0.00484889 0)
(1.00061 -0.00371861 0)
(0.994703 -0.00606447 0)
(0.992122 0.00467667 0)
(0.998265 0.00211287 0)
(1.00037 0.00658978 0)
(1.00159 0.00310153 0)
(1.00261 0.00204509 0)
(1.00257 0.000308995 0)
(1.00106 -0.000498851 0)
(0.999956 0.000170863 0)
(0.999572 -0.000727675 0)
(0.998233 -0.00026014 0)
(0.996612 0.000792357 0)
(0.995155 0.00198032 0)
(0.993623 0.00480828 0)
(0.999914 -0.00345523 0)
(0.995014 0.00191546 0)
(1.00027 0.00423873 0)
(1.00539 0.00224592 0)
(1.00285 -0.00463143 0)
(1.00058 -0.00364003 0)
(0.994889 -0.00581531 0)
(0.99231 0.00445361 0)
(0.998328 0.00213968 0)
(1.0004 0.00624333 0)
(1.00146 0.00319209 0)
(1.00251 0.00190278 0)
(1.00246 0.000453184 0)
(1.00104 -0.000433452 0)
(0.999933 0.000204025 0)
(0.999547 -0.00051953 0)
(0.998313 -0.000113995 0)
(0.996755 0.00105539 0)
(0.995418 0.00228463 0)
(0.994094 0.00488477 0)
(0.999925 -0.00335642 0)
(0.995144 0.00184694 0)
(1.00028 0.00413226 0)
(1.00524 0.0021073 0)
(1.00273 -0.00441183 0)
(1.00055 -0.00355795 0)
(0.995093 -0.00556858 0)
(0.992509 0.00423516 0)
(0.99839 0.00216098 0)
(1.00044 0.00589962 0)
(1.00131 0.00327157 0)
(1.00241 0.0017753 0)
(1.00237 0.000579362 0)
(1.00102 -0.000354694 0)
(0.999921 0.000239196 0)
(0.999529 -0.00030987 0)
(0.998399 4.92989e-05 0)
(0.996908 0.00129966 0)
(0.995673 0.00257317 0)
(0.994541 0.00495993 0)
(0.999936 -0.00325552 0)
(0.995283 0.00177556 0)
(1.00029 0.00402455 0)
(1.00507 0.00197002 0)
(1.00262 -0.00419335 0)
(1.00053 -0.00346937 0)
(0.995306 -0.00532785 0)
(0.992716 0.00402341 0)
(0.998452 0.00217592 0)
(1.00047 0.00556014 0)
(1.00116 0.00334103 0)
(1.0023 0.00165837 0)
(1.00227 0.00069302 0)
(1.001 -0.000262381 0)
(0.999918 0.000273544 0)
(0.99952 -9.39719e-05 0)
(0.998491 0.000221969 0)
(0.997073 0.00151899 0)
(0.995926 0.0028407 0)
(0.994967 0.00503577 0)
(0.999947 -0.00315283 0)
(0.995427 0.00170192 0)
(1.00029 0.00391518 0)
(1.0049 0.0018346 0)
(1.0025 -0.00397797 0)
(1.00051 -0.00337294 0)
(0.995521 -0.00509406 0)
(0.992928 0.00381916 0)
(0.998512 0.00218616 0)
(1.0005 0.0052237 0)
(1.00102 0.00340332 0)
(1.00219 0.0015519 0)
(1.00219 0.000790763 0)
(1.00097 -0.000152751 0)
(0.999923 0.000308497 0)
(0.999518 0.000124995 0)
(0.998586 0.000403918 0)
(0.99725 0.001714 0)
(0.996181 0.00308785 0)
(0.995372 0.00511209 0)
(0.999958 -0.00304875 0)
(0.995574 0.00162662 0)
(1.00029 0.00380369 0)
(1.00473 0.00170254 0)
(1.00239 -0.00376633 0)
(1.00048 -0.00326936 0)
(0.995738 -0.00486649 0)
(0.993144 0.00362193 0)
(0.998569 0.00219279 0)
(1.00055 0.00489098 0)
(1.00088 0.00345948 0)
(1.00207 0.00145698 0)
(1.00211 0.000870825 0)
(1.00095 -2.53854e-05 0)
(0.999935 0.000346656 0)
(0.999525 0.000340987 0)
(0.998686 0.000603402 0)
(0.997439 0.00188801 0)
(0.996438 0.00331248 0)
(0.995758 0.00518733 0)
(0.999968 -0.00294363 0)
(0.995725 0.00155065 0)
(1.0003 0.00368805 0)
(1.00456 0.00157663 0)
(1.00228 -0.00356244 0)
(1.00046 -0.00315528 0)
(0.995954 -0.00464738 0)
(0.993363 0.00343106 0)
(0.998624 0.00219704 0)
(1.00059 0.00455666 0)
(1.00074 0.0035117 0)
(1.00196 0.00137591 0)
(1.00204 0.000930852 0)
(1.00092 0.000123118 0)
(0.999954 0.000389957 0)
(0.999544 0.000551101 0)
(0.998787 0.000822957 0)
(0.997637 0.002042 0)
(0.996701 0.00350666 0)
(0.996124 0.00526419 0)
(0.999979 -0.00283751 0)
(0.995878 0.00147398 0)
(1.0003 0.00356815 0)
(1.00439 0.00145741 0)
(1.00217 -0.0033676 0)
(1.00043 -0.00303128 0)
(0.99617 -0.00443531 0)
(0.993586 0.00324397 0)
(0.998676 0.00220191 0)
(1.00065 0.00421593 0)
(1.00061 0.0035577 0)
(1.00184 0.00131366 0)
(1.00198 0.00096915 0)
(1.00089 0.000292778 0)
(0.999978 0.000441304 0)
(0.999576 0.000744259 0)
(0.99889 0.00106294 0)
(0.997843 0.00218706 0)
(0.996971 0.00366126 0)
(0.996471 0.00534656 0)
(0.999989 -0.00273104 0)
(0.996034 0.00139774 0)
(1.0003 0.00344288 0)
(1.00422 0.00134734 0)
(1.00206 -0.00318108 0)
(1.00041 -0.00290017 0)
(0.996385 -0.00422744 0)
(0.993811 0.00305696 0)
(0.998723 0.00221124 0)
(1.0007 0.0038758 0)
(1.00048 0.0035902 0)
(1.00171 0.00127695 0)
(1.00193 0.000982662 0)
(1.00086 0.000477517 0)
(1.00001 0.000512614 0)
(0.999625 0.00091549 0)
(0.998997 0.00131094 0)
(0.99805 0.00233428 0)
(0.99725 0.00376684 0)
(0.996807 0.00541761 0)
(0.999999 -0.00262468 0)
(0.996192 0.00132346 0)
(1.0003 0.00331033 0)
(1.00404 0.00124785 0)
(1.00195 -0.00300355 0)
(1.00039 -0.00276108 0)
(0.996601 -0.00402308 0)
(0.994041 0.00286639 0)
(0.998765 0.00222921 0)
(1.00076 0.00354119 0)
(1.00037 0.00360314 0)
(1.00158 0.00127017 0)
(1.00189 0.000971546 0)
(1.00084 0.0006734 0)
(1.00004 0.000612384 0)
(0.999689 0.00106392 0)
(0.99911 0.00155271 0)
(0.998254 0.00249155 0)
(0.997535 0.00383185 0)
(0.99714 0.00544767 0)
(1.00001 -0.0025188 0)
(0.996351 0.00125199 0)
(1.0003 0.00316968 0)
(1.00387 0.00115774 0)
(1.00184 -0.00283401 0)
(1.00037 -0.00261712 0)
(0.996815 -0.00381782 0)
(0.994275 0.00266974 0)
(0.998803 0.00225371 0)
(1.00083 0.00321418 0)
(1.00026 0.00359205 0)
(1.00144 0.0013035 0)
(1.00186 0.000942711 0)
(1.00082 0.000872236 0)
(1.00007 0.000747845 0)
(0.999768 0.0011953 0)
(0.999232 0.00178148 0)
(0.998454 0.0026631 0)
(0.99782 0.00387949 0)
(0.997478 0.00542066 0)
(1.00002 -0.00241375 0)
(0.996511 0.00118442 0)
(1.00031 0.00301974 0)
(1.0037 0.00107672 0)
(1.00174 -0.00267051 0)
(1.00034 -0.00247378 0)
(0.997026 -0.00360768 0)
(0.994514 0.00246374 0)
(0.998837 0.00228267 0)
(1.0009 0.00290002 0)
(1.00017 0.00355108 0)
(1.0013 0.00137449 0)
(1.00184 0.000906488 0)
(1.00081 0.00105952 0)
(1.00009 0.00091762 0)
(0.999858 0.00131486 0)
(0.999367 0.00198505 0)
(0.998649 0.00284313 0)
(0.998097 0.00393576 0)
(0.997821 0.00535083 0)
(1.00003 -0.00231014 0)
(0.996671 0.00112074 0)
(1.00031 0.00286335 0)
(1.00353 0.00100354 0)
(1.00163 -0.00251235 0)
(1.00032 -0.00233065 0)
(0.997234 -0.00339239 0)
(0.994759 0.00225037 0)
(0.998867 0.00231019 0)
(1.00097 0.00261013 0)
(1.0001 0.00347602 0)
(1.00115 0.00147362 0)
(1.00182 0.000873111 0)
(1.00083 0.00122372 0)
(1.00012 0.0011122 0)
(0.999954 0.00142969 0)
(0.999515 0.00215692 0)
(0.998843 0.00301458 0)
(0.998361 0.00401184 0)
(0.998161 0.00527101 0)
(1.00004 -0.00220769 0)
(0.996831 0.00106242 0)
(1.00031 0.00269655 0)
(1.00337 0.000937381 0)
(1.00153 -0.00235786 0)
(1.00029 -0.00219155 0)
(0.997436 -0.00316813 0)
(0.995008 0.00203741 0)
(0.998896 0.00233013 0)
(1.00104 0.00235621 0)
(1.00005 0.00337161 0)
(1.001 0.00159804 0)
(1.00181 0.000858698 0)
(1.00086 0.0013631 0)
(1.00014 0.00132213 0)
(1.00005 0.00154321 0)
(0.999676 0.00229998 0)
(0.99904 0.00316654 0)
(0.998613 0.00409472 0)
(0.998488 0.00520947 0)
(1.00005 -0.00210739 0)
(0.996989 0.00101021 0)
(1.00031 0.00252306 0)
(1.0032 0.000873186 0)
(1.00143 -0.00220004 0)
(1.00027 -0.0020641 0)
(0.997631 -0.00293345 0)
(0.995262 0.00182703 0)
(0.998923 0.0023352 0)
(1.0011 0.00213743 0)
(1.00001 0.00324574 0)
(1.00085 0.00173377 0)
(1.00181 0.000871468 0)
(1.0009 0.00147813 0)
(1.00016 0.00154062 0)
(1.00015 0.00165618 0)
(0.99985 0.0024135 0)
(0.999243 0.00330448 0)
(0.998856 0.004169 0)
(0.998796 0.00517318 0)
(1.00006 -0.00200921 0)
(0.997145 0.000962648 0)
(1.00031 0.00234805 0)
(1.00305 0.000803813 0)
(1.00133 -0.00203188 0)
(1.00025 -0.00195037 0)
(0.997818 -0.00269491 0)
(0.995516 0.00162447 0)
(0.998952 0.00231889 0)
(1.00117 0.00194863 0)
(0.999999 0.0031077 0)
(1.00071 0.00187417 0)
(1.0018 0.000907193 0)
(1.00097 0.00156879 0)
(1.00019 0.00176359 0)
(1.00024 0.00177676 0)
(1.00004 0.00249274 0)
(0.999454 0.00342941 0)
(0.999093 0.00423206 0)
(0.999084 0.0051444 0)
(1.00007 -0.00191281 0)
(0.997299 0.000920521 0)
(1.00031 0.0021703 0)
(1.00289 0.000728664 0)
(1.00123 -0.00185112 0)
(1.00023 -0.00184508 0)
(0.997998 -0.00245952 0)
(0.99577 0.0014429 0)
(0.998982 0.00227824 0)
(1.00123 0.0017932 0)
(1.00001 0.00296656 0)
(1.00057 0.00201724 0)
(1.00179 0.00096731 0)
(1.00106 0.00163662 0)
(1.00022 0.00198052 0)
(1.00032 0.00191338 0)
(1.00023 0.00253956 0)
(0.999675 0.0035319 0)
(0.999323 0.00429543 0)
(0.999355 0.00510843 0)
(1.00007 -0.00181865 0)
(0.997448 0.000881383 0)
(1.00031 0.00199872 0)
(1.00274 0.000639105 0)
(1.00113 -0.00165665 0)
(1.00021 -0.00174886 0)
(0.99817 -0.0022298 0)
(0.99602 0.00129586 0)
(0.999014 0.00221604 0)
(1.00129 0.00166202 0)
(1.00004 0.00282867 0)
(1.00043 0.00215681 0)
(1.00177 0.00104666 0)
(1.00117 0.00167743 0)
(1.00026 0.00218068 0)
(1.00039 0.00207352 0)
(1.00043 0.00256579 0)
(0.999912 0.00359763 0)
(0.999548 0.00436669 0)
(0.999609 0.0050682 0)
(1.00008 -0.00172579 0)
(0.997594 0.000842336 0)
(1.0003 0.00183718 0)
(1.0026 0.000529665 0)
(1.00104 -0.00145052 0)
(1.00019 -0.00165467 0)
(0.998336 -0.0020163 0)
(0.996265 0.00118425 0)
(0.999047 0.00214447 0)
(1.00135 0.00154443 0)
(1.00009 0.00269977 0)
(1.00031 0.00229141 0)
(1.00174 0.00114162 0)
(1.00129 0.0016922 0)
(1.00032 0.0023552 0)
(1.00044 0.00225832 0)
(1.00063 0.00258835 0)
(1.00017 0.00361372 0)
(0.999773 0.00443345 0)
(0.999844 0.00503621 0)
(1.00009 -0.00163422 0)
(0.997736 0.00080133 0)
(1.00029 0.00169145 0)
(1.00246 0.00039934 0)
(1.00094 -0.00123842 0)
(1.00016 -0.00155081 0)
(0.998498 -0.00183006 0)
(0.996504 0.00110498 0)
(0.999078 0.00207485 0)
(1.0014 0.00143381 0)
(1.00016 0.00257516 0)
(1.0002 0.00241795 0)
(1.0017 0.0012495 0)
(1.00142 0.00168267 0)
(1.0004 0.00249381 0)
(1.00048 0.00246482 0)
(1.00081 0.0026311 0)
(1.00045 0.00358671 0)
(1.00001 0.00447646 0)
(1.00006 0.00502305 0)
(1.00009 -0.00154261 0)
(0.997873 0.000755228 0)
(1.00027 0.00156405 0)
(1.00234 0.000250793 0)
(1.00085 -0.00103315 0)
(1.00013 -0.00143421 0)
(0.998655 -0.00167319 0)
(0.996738 0.00105294 0)
(0.999105 0.00201565 0)
(1.00145 0.00133173 0)
(1.00025 0.00244488 0)
(1.00011 0.00253521 0)
(1.00164 0.00137566 0)
(1.00156 0.00165537 0)
(1.00052 0.00258337 0)
(1.00051 0.00267561 0)
(1.00096 0.00270574 0)
(1.00073 0.00353363 0)
(1.00026 0.00448056 0)
(1.00026 0.00502132 0)
(1.0001 -0.00145095 0)
(0.998007 0.000703615 0)
(1.00025 0.00145656 0)
(1.00222 9.12627e-05 0)
(1.00077 -0.000848685 0)
(1.00009 -0.00128744 0)
(0.998807 -0.0015453 0)
(0.996969 0.00101207 0)
(0.999126 0.00198041 0)
(1.0015 0.001245 0)
(1.00037 0.00230132 0)
(1.00003 0.00263956 0)
(1.00157 0.00152428 0)
(1.00171 0.00162813 0)
(1.00066 0.00262419 0)
(1.00055 0.00286996 0)
(1.00109 0.00281193 0)
(1.00101 0.00347364 0)
(1.00053 0.00444247 0)
(1.00047 0.00501149 0)
(1.0001 -0.00135924 0)
(0.998137 0.000646615 0)
(1.00021 0.00137014 0)
(1.00211 -7.55753e-05 0)
(1.00069 -0.000696116 0)
(1.00005 -0.00110762 0)
(0.99895 -0.00143031 0)
(0.9972 0.000970485 0)
(0.999143 0.00197802 0)
(1.00153 0.0011817 0)
(1.0005 0.00213681 0)
(0.999974 0.00272338 0)
(1.00148 0.00169616 0)
(1.00184 0.00161489 0)
(1.00084 0.00261885 0)
(1.0006 0.00303079 0)
(1.00118 0.00294115 0)
(1.00128 0.00342362 0)
(1.00082 0.00437101 0)
(1.00067 0.00498586 0)
(1.0001 -0.00126656 0)
(0.998264 0.000583696 0)
(1.00017 0.0013014 0)
(1.002 -0.000237599 0)
(1.00063 -0.000587186 0)
(0.999994 -0.000899307 0)
(0.999082 -0.00132089 0)
(0.997432 0.0009178 0)
(0.999156 0.00199222 0)
(1.00155 0.00115328 0)
(1.00065 0.00195577 0)
(0.99995 0.00276876 0)
(1.00137 0.00188819 0)
(1.00195 0.00162939 0)
(1.00104 0.002576 0)
(1.00067 0.00314997 0)
(1.00125 0.00308223 0)
(1.00153 0.00339151 0)
(1.00113 0.00427106 0)
(1.00089 0.00494119 0)
(1.0001 -0.00117195 0)
(0.998389 0.000512592 0)
(1.00012 0.00124967 0)
(1.00189 -0.000384832 0)
(1.00059 -0.000528146 0)
(0.999938 -0.000667934 0)
(0.999197 -0.00120897 0)
(0.997667 0.00084431 0)
(0.99917 0.00201205 0)
(1.00155 0.00116543 0)
(1.00081 0.00177643 0)
(0.99996 0.00276415 0)
(1.00125 0.00208596 0)
(1.00204 0.0016822 0)
(1.00126 0.00251319 0)
(1.00077 0.00322265 0)
(1.00131 0.00322351 0)
(1.00174 0.00338138 0)
(1.00144 0.00414664 0)
(1.00112 0.00487187 0)
(1.0001 -0.00107634 0)
(0.998511 0.00043361 0)
(1.00007 0.00121081 0)
(1.00178 -0.000507122 0)
(1.00057 -0.000519124 0)
(0.99988 -0.000431434 0)
(0.99929 -0.00107179 0)
(0.997902 0.000753879 0)
(0.99919 0.00202616 0)
(1.00152 0.00122176 0)
(1.00097 0.00161815 0)
(1.00001 0.00271005 0)
(1.00113 0.00226814 0)
(1.00209 0.0017749 0)
(1.00148 0.00245001 0)
(1.0009 0.00324496 0)
(1.00135 0.0033506 0)
(1.00191 0.003398 0)
(1.00175 0.00401015 0)
(1.00137 0.00476956 0)
(1.0001 -0.000978426 0)
(0.998632 0.000345734 0)
(1.00001 0.00117988 0)
(1.00167 -0.000593908 0)
(1.00056 -0.000554907 0)
(0.999828 -0.000210438 0)
(0.99936 -0.000901741 0)
(0.998134 0.000657365 0)
(0.999222 0.00201869 0)
(1.00147 0.00131322 0)
(1.00112 0.00149518 0)
(1.00009 0.00261177 0)
(1.00103 0.002416 0)
(1.00211 0.00189703 0)
(1.0017 0.00240657 0)
(1.00107 0.00322848 0)
(1.00139 0.00345315 0)
(1.00203 0.00344547 0)
(1.00205 0.00388397 0)
(1.00165 0.00462784 0)
(1.0001 -0.000878747 0)
(0.998751 0.000248827 0)
(0.999942 0.00115411 0)
(1.00155 -0.000638144 0)
(1.00057 -0.000627068 0)
(0.999787 -1.9964e-05 0)
(0.999405 -0.000689423 0)
(0.998358 0.000567051 0)
(0.999271 0.00198221 0)
(1.00141 0.00142527 0)
(1.00124 0.00141915 0)
(1.0002 0.00248574 0)
(1.00095 0.00252058 0)
(1.00211 0.00203017 0)
(1.0019 0.00238835 0)
(1.00125 0.00318619 0)
(1.00145 0.00351758 0)
(1.00212 0.00351075 0)
(1.0023 0.00378949 0)
(1.00194 0.00445389 0)
(1.00009 -0.000778425 0)
(0.998869 0.000145415 0)
(0.99988 0.00112943 0)
(1.00142 -0.000637001 0)
(1.0006 -0.00072183 0)
(0.999768 0.000125477 0)
(0.999427 -0.000445056 0)
(0.998565 0.000501069 0)
(0.999339 0.00190515 0)
(1.00134 0.0015386 0)
(1.00134 0.00139685 0)
(1.00033 0.00235516 0)
(1.00089 0.00257416 0)
(1.00208 0.00215525 0)
(1.00207 0.00238801 0)
(1.00146 0.00312951 0)
(1.00153 0.00354044 0)
(1.00217 0.00356951 0)
(1.0025 0.0037339 0)
(1.00224 0.00426932 0)
(1.00008 -0.000677959 0)
(0.998986 4.06255e-05 0)
(0.999823 0.00109871 0)
(1.00128 -0.000587374 0)
(1.00064 -0.00082592 0)
(0.999774 0.000211232 0)
(0.999433 -0.00018739 0)
(0.998747 0.000471004 0)
(0.999423 0.00179762 0)
(1.00127 0.00163162 0)
(1.00142 0.0014239 0)
(1.00047 0.00224058 0)
(1.00087 0.00258814 0)
(1.00205 0.0022609 0)
(1.00222 0.00239664 0)
(1.00167 0.00306687 0)
(1.00163 0.00353382 0)
(1.00222 0.0036088 0)
(1.00266 0.0037086 0)
(1.00251 0.00410267 0)
(1.00008 -0.000579014 0)
(0.999102 -6.04277e-05 0)
(0.999777 0.00105498 0)
(1.00113 -0.000495744 0)
(1.00068 -0.000922134 0)
(0.999812 0.000226884 0)
(0.999431 8.24281e-05 0)
(0.9989 0.000495784 0)
(0.999521 0.00167785 0)
(1.00121 0.00169494 0)
(1.00147 0.00148085 0)
(1.00061 0.00215222 0)
(1.00087 0.00257739 0)
(1.00201 0.0023452 0)
(1.00234 0.00240871 0)
(1.00188 0.00299754 0)
(1.00175 0.00350225 0)
(1.00226 0.00362614 0)
(1.00277 0.00369342 0)
(1.00275 0.00396786 0)
(1.00007 -0.000485014 0)
(0.999216 -0.000150188 0)
(0.999746 0.000989298 0)
(1.00097 -0.000375774 0)
(1.00072 -0.000983501 0)
(0.999886 0.000181035 0)
(0.999436 0.000325701 0)
(0.999019 0.000583123 0)
(0.999622 0.00156267 0)
(1.00117 0.0017191 0)
(1.0015 0.00154769 0)
(1.00074 0.00209897 0)
(1.00089 0.00255516 0)
(1.00197 0.00241343 0)
(1.00245 0.00242723 0)
(1.00209 0.00292524 0)
(1.00189 0.00344378 0)
(1.00231 0.00362101 0)
(1.00284 0.00367456 0)
(1.00295 0.00386236 0)
(1.00006 -0.000397737 0)
(0.999328 -0.000224188 0)
(0.999731 0.000900213 0)
(1.00081 -0.000237866 0)
(1.00074 -0.000996701 0)
(0.999989 9.18828e-05 0)
(0.999459 0.000514938 0)
(0.99911 0.000712159 0)
(0.999716 0.0014781 0)
(1.00115 0.0016997 0)
(1.00153 0.0016074 0)
(1.00086 0.00207226 0)
(1.00092 0.002533 0)
(1.00194 0.00246678 0)
(1.00252 0.0024515 0)
(1.00228 0.00285883 0)
(1.00204 0.00336277 0)
(1.00237 0.00358925 0)
(1.0029 0.00364684 0)
(1.0031 0.00377829 0)
(1.00006 -0.000319128 0)
(0.999433 -0.000277718 0)
(0.999735 0.000788985 0)
(1.00066 -9.56973e-05 0)
(1.00075 -0.000951795 0)
(1.00012 -2.76328e-05 0)
(0.999509 0.000636935 0)
(0.99918 0.000867576 0)
(0.999794 0.00143555 0)
(1.00114 0.00166373 0)
(1.00156 0.00164122 0)
(1.00097 0.00205686 0)
(1.00097 0.00251204 0)
(1.00191 0.00250744 0)
(1.00258 0.00247536 0)
(1.00246 0.00280266 0)
(1.00221 0.00327194 0)
(1.00245 0.00352993 0)
(1.00295 0.00360129 0)
(1.00321 0.00370328 0)
(1.00005 -0.000251124 0)
(0.99953 -0.000306917 0)
(0.999756 0.00065927 0)
(1.00051 3.55857e-05 0)
(1.00073 -0.000848715 0)
(1.00025 -0.000152451 0)
(0.999596 0.00066879 0)
(0.999241 0.00102938 0)
(0.999852 0.00144304 0)
(1.00114 0.0016313 0)
(1.00159 0.0016527 0)
(1.00109 0.00204157 0)
(1.00103 0.00249162 0)
(1.00189 0.00253915 0)
(1.00262 0.00249878 0)
(1.00262 0.00275433 0)
(1.00238 0.00318213 0)
(1.00254 0.00345602 0)
(1.003 0.00353384 0)
(1.0033 0.00362285 0)
(1.00005 -0.00019345 0)
(0.999618 -0.000315432 0)
(0.999792 0.000524824 0)
(1.00039 0.0001476 0)
(1.0007 -0.000701092 0)
(1.00039 -0.000253171 0)
(0.999721 0.000632912 0)
(0.999313 0.00116042 0)
(0.99989 0.00150017 0)
(1.00114 0.00160775 0)
(1.00163 0.00164963 0)
(1.0012 0.00201585 0)
(1.0011 0.00246268 0)
(1.00187 0.00255821 0)
(1.00265 0.00252067 0)
(1.00276 0.00271319 0)
(1.00255 0.00309233 0)
(1.00263 0.00337994 0)
(1.00305 0.00345734 0)
(1.00337 0.00352839 0)
(1.00004 -0.000147214 0)
(0.999694 -0.00030299 0)
(0.999841 0.000392914 0)
(1.00029 0.000234377 0)
(1.00065 -0.000527451 0)
(1.00051 -0.000304521 0)
(0.999878 0.000555188 0)
(0.999407 0.00123964 0)
(0.999915 0.00157788 0)
(1.00113 0.00162033 0)
(1.00167 0.00163843 0)
(1.00133 0.00198205 0)
(1.00119 0.00242335 0)
(1.00187 0.00256124 0)
(1.00267 0.00253451 0)
(1.00289 0.00267913 0)
(1.00272 0.00300151 0)
(1.00274 0.00329547 0)
(1.00309 0.00338593 0)
(1.00343 0.00342307 0)
(1.00004 -0.000110925 0)
(0.999759 -0.000271732 0)
(0.999899 0.000269434 0)
(1.00021 0.00028935 0)
(1.00058 -0.000347531 0)
(1.00061 -0.000293882 0)
(1.00006 0.000457083 0)
(0.999532 0.00125586 0)
(0.999941 0.00164768 0)
(1.0011 0.00166596 0)
(1.00171 0.00164022 0)
(1.00145 0.00194083 0)
(1.00129 0.00237369 0)
(1.00188 0.00254886 0)
(1.00268 0.00253544 0)
(1.00299 0.0026459 0)
(1.00288 0.00291768 0)
(1.00285 0.00319772 0)
(1.00313 0.00331924 0)
(1.00346 0.00332591 0)
(1.00004 -8.44595e-05 0)
(0.999811 -0.000226146 0)
(0.999961 0.000166143 0)
(1.00016 0.00031112 0)
(1.00052 -0.0001697 0)
(1.00068 -0.000231093 0)
(1.00024 0.000370911 0)
(0.999687 0.00121154 0)
(0.999981 0.0016965 0)
(1.00107 0.00171549 0)
(1.00172 0.00166468 0)
(1.00156 0.00190487 0)
(1.0014 0.00231054 0)
(1.0019 0.00251917 0)
(1.00269 0.00252381 0)
(1.00307 0.00260359 0)
(1.00303 0.00283843 0)
(1.00298 0.00309143 0)
(1.00317 0.00323981 0)
(1.00348 0.00324566 0)
(1.00004 -6.50578e-05 0)
(0.999852 -0.00017284 0)
(1.00002 8.93607e-05 0)
(1.00014 0.000306092 0)
(1.00045 -1.10547e-05 0)
(1.00073 -0.000134981 0)
(1.00041 0.000315116 0)
(0.999867 0.00113505 0)
(1.00004 0.00170303 0)
(1.00104 0.00176554 0)
(1.00173 0.00169628 0)
(1.00167 0.001889 0)
(1.00151 0.00224784 0)
(1.00194 0.00246991 0)
(1.00269 0.00250059 0)
(1.00315 0.00255293 0)
(1.00317 0.00275452 0)
(1.00311 0.00298526 0)
(1.00323 0.00313996 0)
(1.00348 0.00316931 0)
(1.00005 -5.06575e-05 0)
(0.999883 -0.000118793 0)
(1.00008 4.22212e-05 0)
(1.00014 0.000286068 0)
(1.00041 0.000124049 0)
(1.00075 -1.08926e-05 0)
(1.00056 0.000300304 0)
(1.00006 0.00105099 0)
(1.00013 0.00166008 0)
(1.00101 0.00180001 0)
(1.00172 0.00172768 0)
(1.00175 0.00187907 0)
(1.00162 0.00219876 0)
(1.00199 0.00241025 0)
(1.0027 0.00246064 0)
(1.0032 0.00249761 0)
(1.00329 0.00266168 0)
(1.00323 0.00287734 0)
(1.0033 0.0030306 0)
(1.00348 0.00308073 0)
(1.00005 -3.8282e-05 0)
(0.999905 -6.96435e-05 0)
(1.00012 2.3842e-05 0)
(1.00016 0.000261325 0)
(1.00037 0.000231916 0)
(1.00075 0.000125092 0)
(1.00069 0.000330103 0)
(1.00025 0.000975916 0)
(1.00024 0.00159558 0)
(1.001 0.00179737 0)
(1.00171 0.0017587 0)
(1.00183 0.00186792 0)
(1.00172 0.00215762 0)
(1.00204 0.00235698 0)
(1.00271 0.00240862 0)
(1.00324 0.00243437 0)
(1.0034 0.00256375 0)
(1.00336 0.00275717 0)
(1.00337 0.00291536 0)
(1.00349 0.00297402 0)
(1.00005 -2.74615e-05 0)
(0.999921 -2.63673e-05 0)
(1.00016 2.72964e-05 0)
(1.00019 0.000243586 0)
(1.00036 0.000307817 0)
(1.00075 0.000250623 0)
(1.00079 0.000388835 0)
(1.00043 0.000923659 0)
(1.00036 0.00152485 0)
(1.00101 0.00176746 0)
(1.0017 0.00176904 0)
(1.00189 0.00185917 0)
(1.00182 0.00211299 0)
(1.00208 0.00230909 0)
(1.0027 0.00235865 0)
(1.00327 0.0023648 0)
(1.00349 0.00246425 0)
(1.00348 0.00262764 0)
(1.00345 0.00278823 0)
(1.0035 0.00285771 0)
(1.00006 -1.76196e-05 0)
(0.999934 1.24242e-05 0)
(1.00019 4.61483e-05 0)
(1.00022 0.00023795 0)
(1.00036 0.000363162 0)
(1.00075 0.000359535 0)
(1.00086 0.000457189 0)
(1.00059 0.000899836 0)
(1.00049 0.00145358 0)
(1.00103 0.00173088 0)