/*--------------------------------*- C++ -*----------------------------------*\
| =========                 |                                                 |
| \\      /  F ield         | OpenFOAM: The Open Source CFD Toolbox           |
|  \\    /   O peration     | Version:  3.0.1                                 |
|   \\  /    A nd           | Web:      www.OpenFOAM.org                      |
|    \\/     M anipulation  |                                                 |
\*---------------------------------------------------------------------------*/
FoamFile
{
    version     2.0;
    format      ascii;
    class       volScalarField;
    location    "3.4";
    object      p;
}
// * * * * * * * * * * * * * * * * * * * * * * * * * * * * * * * * * * * * * //

dimensions      [0 2 -2 0 0 0 0];

internalField   nonuniform List<scalar> 
9600
(
-7.15307e-09
-0.00230519
-0.000885107
9.64917e-05
-0.00398567
-0.00129619
0.0020729
0.000232892
-0.000923408
-0.000105655
-0.000721264
-0.00187824
-0.00205907
-0.00188967
-0.00284775
-0.00208547
-0.00380792
-0.0023397
-0.00207486
-0.000745453
2.58959e-06
-0.00228585
-0.000892172
6.92418e-05
-0.00395855
-0.00128116
0.00202901
0.000233667
-0.000926931
-0.000142252
-0.000696644
-0.00188858
-0.00204103
-0.001906
-0.00282682
-0.00212961
-0.00373267
-0.00235823
-0.00205054
-0.000856023
6.16651e-06
-0.00226819
-0.000908352
3.69396e-05
-0.00392996
-0.001268
0.00198709
0.000237244
-0.000938283
-0.000163539
-0.000699444
-0.00190545
-0.00202146
-0.00192249
-0.00279999
-0.00216612
-0.00364595
-0.00239813
-0.00202909
-0.00101032
9.35936e-06
-0.00225132
-0.000925555
1.44241e-06
-0.00389987
-0.00125413
0.00194782
0.000237466
-0.000954917
-0.000183869
-0.000688781
-0.00192798
-0.00200106
-0.00193716
-0.00276787
-0.00220189
-0.00356809
-0.00244571
-0.0020221
-0.00117161
1.21674e-05
-0.00223488
-0.000941661
-3.49122e-05
-0.00386296
-0.0012415
0.00190839
0.000232243
-0.000976464
-0.000202997
-0.000679892
-0.00195578
-0.00197825
-0.00194997
-0.00273182
-0.00224053
-0.00349647
-0.00249099
-0.00203235
-0.00132847
1.47126e-05
-0.00221905
-0.000955795
-6.85379e-05
-0.00381701
-0.00123387
0.00186814
0.000222931
-0.00100065
-0.000220433
-0.000671209
-0.00198649
-0.0019537
-0.0019616
-0.0026933
-0.00228167
-0.00342852
-0.00253027
-0.00206207
-0.0014737
1.69709e-05
-0.00220385
-0.000966668
-9.7691e-05
-0.0037623
-0.00123188
0.00182816
0.000211596
-0.00102502
-0.000236415
-0.000660954
-0.00201823
-0.00192886
-0.00197245
-0.00265416
-0.00232202
-0.00336476
-0.00256576
-0.00210809
-0.00160443
1.89721e-05
-0.0021889
-0.000973963
-0.000122605
-0.00370055
-0.00123416
0.00178917
0.000199652
-0.00104842
-0.000251333
-0.000647996
-0.00205019
-0.00190459
-0.00198277
-0.00261554
-0.00235882
-0.00331002
-0.00259721
-0.00216498
-0.00172646
2.08579e-05
-0.00217378
-0.00097845
-0.000144665
-0.00363396
-0.0012392
0.0017509
0.000187869
-0.00107061
-0.000265419
-0.000632133
-0.00208218
-0.0018813
-0.00199236
-0.00257795
-0.00239115
-0.00326689
-0.00262195
-0.00223129
-0.00184868
2.28161e-05
-0.00215822
-0.000981324
-0.000165377
-0.00356442
-0.00124589
0.00171261
0.000176556
-0.00109181
-0.000279069
-0.000613844
-0.00211426
-0.00185929
-0.00200039
-0.00254227
-0.00241838
-0.00323572
-0.0026395
-0.00230821
-0.00197669
2.50125e-05
-0.00214216
-0.000983627
-0.000185822
-0.00349306
-0.00125355
0.00167352
0.000165694
-0.00111246
-0.000292802
-0.000593745
-0.00214649
-0.00183882
-0.00200581
-0.00250991
-0.00243902
-0.00321648
-0.00265223
-0.00239425
-0.00211292
2.75611e-05
-0.00212564
-0.000985986
-0.000206616
-0.00342045
-0.00126183
0.00163307
0.00015515
-0.00113303
-0.000307059
-0.000572364
-0.00217879
-0.00182027
-0.00200762
-0.00248214
-0.00245103
-0.00320959
-0.00266297
-0.00248489
-0.00225945
3.05262e-05
-0.00210875
-0.000988631
-0.000228067
-0.00334675
-0.00127045
0.00159093
0.000144841
-0.0011538
-0.000322129
-0.000550161
-0.00221084
-0.00180428
-0.0020048
-0.00245999
-0.00245494
-0.0032148
-0.00267481
-0.00257492
-0.00241769
3.39369e-05
-0.00209157
-0.000991533
-0.000250278
-0.00327198
-0.00127916
0.00154688
0.000134747
-0.00117498
-0.000338104
-0.00052753
-0.00224213
-0.00179165
-0.00199641
-0.00244425
-0.00245126
-0.00323049
-0.00269173
-0.00265948
-0.00258669
3.78021e-05
-0.00207417
-0.000994556
-0.000273233
-0.00319614
-0.00128772
0.00150079
0.000124883
-0.00119672
-0.000354926
-0.000504796
-0.0022721
-0.00178323
-0.00198173
-0.00243539
-0.0024415
-0.00325382
-0.00271805
-0.00273458
-0.00276331
4.21189e-05
-0.00205658
-0.000997551
-0.000296862
-0.00311925
-0.00129589
0.00145254
0.000115308
-0.0012191
-0.000372474
-0.000483454
-0.00230019
-0.00177979
-0.0019605
-0.00243323
-0.0024278
-0.00328111
-0.0027573
-0.00279806
-0.00294282
4.68761e-05
-0.00203877
-0.00100041
-0.000321065
-0.00304144
-0.00130344
0.00140197
0.000106145
-0.0012422
-0.000390639
-0.000461501
-0.00232589
-0.00178201
-0.00193262
-0.00243699
-0.00241317
-0.00330865
-0.00281167
-0.00285012
-0.0031195
5.20493e-05
-0.00202069
-0.00100306
-0.000345709
-0.00296289
-0.0013101
0.00134889
9.75374e-05
-0.00126606
-0.000409408
-0.000440202
-0.00234884
-0.00179055
-0.00189794
-0.00244536
-0.00240124
-0.00333359
-0.00288193
-0.0028927
-0.00328733
5.75976e-05
-0.00200224
-0.00100552
-0.00037065
-0.00288387
-0.0013156
0.00129312
8.96195e-05
-0.00129075
-0.000428798
-0.000419631
-0.00236882
-0.00180576
-0.00185708
-0.00245635
-0.002395
-0.00335432
-0.0029671
-0.00292875
-0.00344037
6.34658e-05
-0.00198329
-0.00100784
-0.000395722
-0.00280468
-0.00131967
0.00123447
8.25123e-05
-0.00131628
-0.000448972
-0.000399709
-0.00238576
-0.00182791
-0.00181132
-0.00246776
-0.00239641
-0.00337016
-0.00306502
-0.00296176
-0.00357303
6.95876e-05
-0.00196367
-0.00101013
-0.000420737
-0.0027257
-0.00132202
0.00117276
7.62916e-05
-0.00134258
-0.000470269
-0.000380112
-0.00239976
-0.00185702
-0.00176182
-0.00247807
-0.00240705
-0.00338052
-0.00317326
-0.00299592
-0.0036807
7.58748e-05
-0.00194316
-0.00101254
-0.000445485
-0.0026473
-0.0013224
0.00110785
7.09783e-05
-0.00136947
-0.000493055
-0.000360436
-0.00241127
-0.00189253
-0.00170944
-0.00248623
-0.0024277
-0.0033849
-0.00328945
-0.00303602
-0.00376006
8.22041e-05
-0.00192152
-0.00101524
-0.000469747
-0.00256982
-0.00132053
0.00103962
6.65618e-05
-0.00139663
-0.000518118
-0.000339958
-0.00242042
-0.00193686
-0.00165496
-0.00249132
-0.0024589
-0.00338318
-0.00341067
-0.00308675
-0.00380948
8.84231e-05
-0.00189844
-0.00101846
-0.000493282
-0.00249363
-0.00131622
0.000968089
6.289e-05
-0.00142348
-0.000546494
-0.000317984
-0.00242686
-0.00198446
-0.00159928
-0.00249271
-0.00250151
-0.00337525
-0.00353267
-0.00315242
-0.0038297
9.43571e-05
-0.00187358
-0.00102242
-0.00051584
-0.00241916
-0.00130932
0.00089349
5.95454e-05
-0.00144925
-0.000579065
-0.000294204
-0.00242997
-0.00203896
-0.00154405
-0.00248957
-0.00255646
-0.00336137
-0.00364986
-0.00323714
-0.00382474
9.97935e-05
-0.00184656
-0.00102735
-0.000537231
-0.0023467
-0.00129979
0.000816169
5.59911e-05
-0.00147307
-0.000616821
-0.000268593
-0.00242865
-0.00210129
-0.0014899
-0.00248016
-0.00262479
-0.00334316
-0.00375489
-0.00334407
-0.00380331
0.000104481
-0.00181693
-0.00103346
-0.000557294
-0.00227641
-0.00128778
0.00073657
5.15143e-05
-0.00149387
-0.000660477
-0.000241762
-0.00242172
-0.00217189
-0.00143837
-0.00246218
-0.00270734
-0.00332447
-0.00383906
-0.00347329
-0.0037794
0.000108138
-0.00178424
-0.00104096
-0.000575798
-0.00220853
-0.00127354
0.000655493
4.50141e-05
-0.00151061
-0.000710228
-0.000214968
-0.00240757
-0.00225111
-0.00139226
-0.00243293
-0.00280308
-0.00331124
-0.00389449
-0.00361889
-0.00377038
0.000110465
-0.00174806
-0.00105
-0.000592666
-0.0021432
-0.00125744
0.000574086
3.54525e-05
-0.00152259
-0.000766012
-0.00018963
-0.00238425
-0.00233895
-0.00135511
-0.00239041
-0.00290935
-0.00331073
-0.00391647
-0.00376752
-0.00379306
0.000111128
-0.00170786
-0.00106071
-0.000607942
-0.00208023
-0.0012402
0.000493793
2.21741e-05
-0.00152962
-0.000827403
-0.000167458
-0.00235025
-0.00243443
-0.00133008
-0.00233353
-0.00302192
-0.00333024
-0.00390602
-0.00390192
-0.0038571
0.000109759
-0.00166312
-0.00107311
-0.000621602
-0.00201919
-0.0012228
0.000416222
4.70009e-06
-0.00153216
-0.00089341
-0.000150543
-0.00230491
-0.00253533
-0.00132106
-0.00226033
-0.00313413
-0.00337516
-0.00387141
-0.00400514
-0.00395798
0.000106023
-0.00161341
-0.00108701
-0.000633019
-0.00195951
-0.00120607
0.000342498
-1.7099e-05
-0.00153099
-0.000962593
-0.000140943
-0.00224821
-0.00263864
-0.00133214
-0.00217252
-0.00323784
-0.00344783
-0.00382528
-0.00406498
-0.00407679
9.96042e-05
-0.00155838
-0.00110214
-0.000645177
-0.00190029
-0.00118428
0.000273205
-4.24061e-05
-0.00152718
-0.0010337
-0.000140197
-0.00218041
-0.00274141
-0.00136672
-0.00207352
-0.00332534
-0.00354672
-0.00378023
-0.00407831
-0.00418923
9.01495e-05
-0.00149754
-0.00111795
-0.000657926
-0.00184038
-0.0011747
0.000208478
-6.97795e-05
-0.00152208
-0.0011059
-0.000149411
-0.00210263
-0.00284055
-0.00142693
-0.00196775
-0.00338984
-0.00366759
-0.00374672
-0.00405112
-0.00427489
7.72982e-05
-0.00143081
-0.0011335
-0.000672254
-0.00177843
-0.00116993
0.000147123
-9.76509e-05
-0.00151647
-0.00117879
-0.000169654
-0.00201664
-0.00293266
-0.00151362
-0.00186032
-0.00342494
-0.00380504
-0.00373261
-0.00399296
-0.00432149
6.07619e-05
-0.00135844
-0.00114731
-0.000689267
-0.00171372
-0.00117062
8.72272e-05
-0.000124581
-0.00151051
-0.00125252
-0.000202076
-0.00191509
-0.0030138
-0.00162671
-0.00175771
-0.00342446
-0.00395241
-0.00374484
-0.00391258
-0.00432412
4.0462e-05
-0.00128146
-0.00115757
-0.000709445
-0.00164629
-0.00117479
2.70381e-05
-0.000149835
-0.0015042
-0.00132739
-0.000247813
-0.00181849
-0.00307983
-0.00176467
-0.00166809
-0.00338333
-0.00409988
-0.00379075
-0.0038194
-0.00428086
1.64349e-05
-0.00120136
-0.00116224
-0.000732524
-0.00157686
-0.0011803
-3.49451e-05
-0.000173363
-0.00149722
-0.00140364
-0.000307306
-0.00171975
-0.00312688
-0.00192402
-0.00160024
-0.00329931
-0.00423275
-0.00387617
-0.00372725
-0.00419111
-1.11815e-05
-0.00111975
-0.0011592
-0.000757903
-0.0015068
-0.0011863
-0.000100305
-0.0001957
-0.00148814
-0.00148093
-0.000381149
-0.0016212
-0.00315257
-0.00209985
-0.00156312
-0.00317665
-0.00433452
-0.00399995
-0.00365459
-0.00405887
-4.2094e-05
-0.00103812
-0.00114683
-0.000784811
-0.0014376
-0.00119152
-0.000171065
-0.000218292
-0.00147424
-0.00155814
-0.000469788
-0.00152535
-0.00315253
-0.00228504
-0.00156477
-0.00302704
-0.00439092
-0.00415183
-0.00362095
-0.00389799
-7.60255e-05
-0.000957931
-0.00112415
-0.000812118
-0.0013706
-0.00119582
-0.000248575
-0.000242752
-0.00145286
-0.00163338
-0.000573454
-0.00143646
-0.00312196
-0.00247043
-0.00160895
-0.00286488
-0.00439267
-0.00431406
-0.00364013
-0.00373082
-0.00011184
-0.000880791
-0.00109108
-0.00083877
-0.0013065
-0.00120195
-0.000334212
-0.000272511
-0.0014232
-0.00170246
-0.00069022
-0.00135932
-0.00306142
-0.00264662
-0.00169505
-0.00270577
-0.004337
-0.00446625
-0.00371417
-0.00358291
-0.000148166
-0.000807412
-0.00104895
-0.000863538
-0.00124533
-0.00119977
-0.000427623
-0.000314306
-0.00138855
-0.00176039
-0.000815986
-0.00129807
-0.00297451
-0.0028032
-0.00181807
-0.00256467
-0.00422812
-0.00458973
-0.00383447
-0.00347766
-0.000184743
-0.00073875
-0.000998154
-0.000885067
-0.00118909
-0.00117064
-0.000525418
-0.000372286
-0.00135141
-0.00180305
-0.000946859
-0.0012569
-0.00286732
-0.0029306
-0.00196872
-0.00245381
-0.00407553
-0.00466857
-0.00398483
-0.00343002
-0.000220164
-0.000675585
-0.000939465
-0.000902594
-0.00114339
-0.00115621
-0.000624596
-0.000440788
-0.00131189
-0.00182843
-0.00107849
-0.00123939
-0.00274792
-0.00302418
-0.00213636
-0.00238235
-0.00389427
-0.00469139
-0.00414453
-0.00344399
-0.000252075
-0.000618524
-0.000877041
-0.000916362
-0.00110997
-0.00113387
-0.000711227
-0.000516045
-0.00127587
-0.00183832
-0.00120667
-0.00124508
-0.00262502
-0.00308256
-0.00231
-0.00235478
-0.00370247
-0.00465374
-0.0042914
-0.00351343
-0.000280074
-0.000568413
-0.000813251
-0.000924629
-0.00108373
-0.00110635
-0.000783461
-0.0005958
-0.00125004
-0.00183586
-0.00132664
-0.00127094
-0.00250501
-0.00310727
-0.00247941
-0.00236934
-0.00351785
-0.00455959
-0.00440469
-0.0036228
-0.000303158
-0.000525623
-0.000749574
-0.000925691
-0.00107064
-0.00108105
-0.000841851
-0.000677102
-0.001235
-0.00182388
-0.00143527
-0.00131471
-0.00239405
-0.00310114
-0.00263473
-0.00241867
-0.00335366
-0.00442077
-0.00446754
-0.00374915
-0.000320525
-0.000490246
-0.000687956
-0.000917985
-0.0010686
-0.00106374
-0.000887177
-0.000752926
-0.00122926
-0.00180787
-0.00153241
-0.0013714
-0.00229493
-0.0030668
-0.00276685
-0.00249336
-0.00321963
-0.00425459
-0.00447314
-0.00386762
-0.000331759
-0.000461439
-0.000630403
-0.000901866
-0.00107588
-0.00105687
-0.00092012
-0.000819228
-0.00123119
-0.00179071
-0.00161749
-0.00143596
-0.00220823
-0.00300873
-0.00287091
-0.00258498
-0.00312218
-0.00407952
-0.00442591
-0.00395705
-0.000336546
-0.000437966
-0.000579968
-0.000878308
-0.00108675
-0.00106115
-0.000945421
-0.000875052
-0.00123649
-0.00177152
-0.00169014
-0.00150673
-0.00213684
-0.00293305
-0.00294483
-0.00268357
-0.00306051
-0.00390969
-0.00433721
-0.00400434
-0.000335179
-0.000418106
-0.000538989
-0.000849439
-0.00109564
-0.00107573
-0.000969103
-0.000920095
-0.00124148
-0.00175076
-0.00175091
-0.00158222
-0.00208353
-0.00284558
-0.00298612
-0.00277814
-0.00302876
-0.00375445
-0.00422053
-0.00400807
-0.000328701
-0.000400401
-0.000508162
-0.000817336
-0.00109598
-0.0010981
-0.00099687
-0.000956619
-0.00124426
-0.00172882
-0.00179968
-0.00165822
-0.00204819
-0.00275349
-0.00299536
-0.00285993
-0.00302033
-0.00361959
-0.00408874
-0.0039735
-0.000318425
-0.000385063
-0.000486785
-0.000783655
-0.00108651
-0.00112394
-0.00103177
-0.000990083
-0.00124426
-0.00170324
-0.00183576
-0.00173118
-0.0020293
-0.00266372
-0.00297715
-0.00292229
-0.00302757
-0.00350708
-0.00395143
-0.00390764
-0.000305524
-0.000370657
-0.000473111
-0.000751851
-0.00106817
-0.00114735
-0.00107274
-0.00102564
-0.00124253
-0.00167208
-0.00185767
-0.00179868
-0.00202554
-0.0025813
-0.00293807
-0.00296052
-0.00304067
-0.00341551
-0.00381539
-0.00381923
-0.00029121
-0.00035653
-0.000464862
-0.000724816
-0.00104277
-0.001164
-0.00111778
-0.00106601
-0.00124169
-0.0016366
-0.00186327
-0.00185634
-0.00203456
-0.00250991
-0.00288437
-0.00297399
-0.00305046
-0.00334135
-0.00368586
-0.00371723
-0.000276466
-0.000341939
-0.000460236
-0.000704455
-0.00101383
-0.00117187
-0.00116234
-0.00111107
-0.00124528
-0.00159931
-0.00185314
-0.00189888
-0.00205005
-0.00245189
-0.00282256
-0.00296586
-0.00305197
-0.00327987
-0.00356551
-0.00360732
-0.000261955
-0.000327003
-0.000457349
-0.000691059
-0.000986048
-0.00117112
-0.00120082
-0.00115916
-0.00125594
-0.00156259
-0.00183012
-0.00192375
-0.00206472
-0.00240612
-0.00275886
-0.00294068
-0.00304347
-0.00322608
-0.00345443
-0.00349209
-0.000248269
-0.000312342
-0.000454358
-0.000683973
-0.000963011
-0.00116306
-0.00122947
-0.00120717
-0.00127448
-0.00153002
-0.00179662
-0.00193088
-0.00207411
-0.00236838
-0.0026967
-0.00290191
-0.0030232
-0.00317578
-0.00335232
-0.00337477
-0.000235823
-0.000298529
-0.000450754
-0.000681642
-0.000946123
-0.00115075
-0.00124755
-0.00125022
-0.00129872
-0.00150567
-0.00175621
-0.00192004
-0.00207454
-0.0023344
-0.0026368
-0.00285336
-0.00299039
-0.00312544
-0.00325858
-0.00325862
-0.000224831
-0.000286374
-0.000446626
-0.000681877
-0.000935473
-0.00113817
-0.00125653
-0.00128414
-0.00132489
-0.00149042
-0.00171508
-0.00189393
-0.00206156
-0.00230003
-0.00257854
-0.00279916
-0.0029471
-0.00307196
-0.00317113
-0.00314502
-0.000215435
-0.000276657
-0.000442666
-0.000682798
-0.000930271
-0.00112816
-0.00125827
-0.00130746
-0.00134878
-0.00148125
-0.00167757
-0.00185834
-0.0020341
-0.00226014
-0.00251913
-0.00273988
-0.00289572
-0.00301376
-0.0030878
-0.00303565
-0.000207866
-0.000269739
-0.00043978
-0.000683655
-0.000929172
-0.00112209
-0.00125576
-0.00132085
-0.00136692
-0.00147467
-0.0016429
-0.00181806
-0.0019962
-0.00221203
-0.00245579
-0.00267397
-0.0028362
-0.00295011
-0.00300602
-0.00293164
-0.000202423
-0.000265704
-0.000438909
-0.00068475
-0.000930405
-0.0011198
-0.00125215
-0.00132616
-0.00137722
-0.00146832
-0.00160987
-0.00177334
-0.00194982
-0.00215604
-0.00238701
-0.00260114
-0.00276779
-0.00288022
-0.00292293
-0.00283141
-0.00019952
-0.000264704
-0.00044077
-0.00068686
-0.000932838
-0.00112041
-0.00124935
-0.00132559
-0.00137886
-0.00145894
-0.00157841
-0.00172509
-0.00189438
-0.00209157
-0.00231086
-0.00252025
-0.00268966
-0.00280289
-0.00283696
-0.00273245
-0.00019977
-0.000266852
-0.000445751
-0.000691002
-0.000936164
-0.00112295
-0.001248
-0.00132209
-0.00137362
-0.00144304
-0.00154512
-0.00167504
-0.00183112
-0.00201749
-0.00222559
-0.00242896
-0.00259986
-0.0027153
-0.00274563
-0.00263257
-0.000203876
-0.000272448
-0.000453904
-0.000698154
-0.000941191
-0.00112697
-0.00124782
-0.00131716
-0.00136415
-0.00142179
-0.00150665
-0.00162073
-0.00176123
-0.0019332
-0.00212973
-0.00232579
-0.00249668
-0.00261497
-0.00264524
-0.00252869
-0.000212329
-0.000281957
-0.000465507
-0.000708664
-0.000948958
-0.00113292
-0.00124927
-0.00131137
-0.00135074
-0.0013968
-0.00146378
-0.00155943
-0.00168357
-0.00183835
-0.00202035
-0.002208
-0.00237757
-0.00249969
-0.00253329
-0.00241801
-0.00022559
-0.000296124
-0.000481073
-0.000722898
-0.000960281
-0.0011413
-0.00125274
-0.00130664
-0.00133471
-0.00136732
-0.00141689
-0.00149106
-0.00159583
-0.0017319
-0.00189467
-0.00207045
-0.00223677
-0.0023633
-0.00240429
-0.00229566
-0.000244416
-0.000315499
-0.000500978
-0.00074154
-0.000976161
-0.0011536
-0.00125876
-0.00130376
-0.00131883
-0.00133469
-0.00136501
-0.00141608
-0.00149651
-0.0016097
-0.00174929
-0.00190713
-0.00206599
-0.00219488
-0.00224633
-0.00215114
-0.000269482
-0.000339575
-0.000525923
-0.000765372
-0.000997078
-0.00117076
-0.00126994
-0.00130491
-0.00130505
-0.00130188
-0.00130816
-0.00133255
-0.00138493
-0.00146789
-0.00157912
-0.00171224
-0.00185498
-0.00197969
-0.00203931
-0.00196326
-0.000302471
-0.000372089
-0.00055592
-0.000794323
-0.00102399
-0.00119319
-0.00128782
-0.00131419
-0.00129798
-0.00127263
-0.00124927
-0.00123906
-0.00125813
-0.00130307
-0.00137767
-0.00147935
-0.00159667
-0.00170635
-0.0017635
-0.00170292
-0.000343591
-0.000412579
-0.000592914
-0.000829558
-0.00105698
-0.00122249
-0.00131412
-0.00133642
-0.00130795
-0.00125718
-0.00119582
-0.00113641
-0.00110315
-0.00109864
-0.00113164
-0.00120515
-0.00130103
-0.0013902
-0.00143
-0.0013562
-0.000389852
-0.000456978
-0.000640684
-0.000874766
-0.00109597
-0.00125682
-0.00134854
-0.00137424
-0.00134789
-0.00128959
-0.00118633
-0.00103797
-0.000880683
-0.000740357
-0.000651418
-0.000651729
-0.000755432
-0.000935206
-0.00112152
-0.00122198
-0.000447486
-0.000514373
-0.000698504
-0.000927254
-0.00113863
-0.00129115
-0.00138203
-0.00141878
-0.00141198
-0.00139455
-0.0013619
-0.0012614
-0.00102282
-0.000661095
-0.000296733
1.2474e-06
0.000258558
0.000512248
0.00076366
0.000952798
-0.000520699
-0.000589816
-0.000767623
-0.000987181
-0.00118573
-0.00132339
-0.00140644
-0.00144984
-0.00144355
-0.00133465
-0.00107111
-0.000730423
-0.000410683
-0.000150036
4.93809e-05
0.000208806
0.000333572
0.000434075
0.000509726
0.000518587
-0.000610453
-0.00066504
-0.000841555
-0.00106112
-0.00126763
-0.00141558
-0.00146554
-0.00136981
-0.00117203
-0.000967227
-0.000782515
-0.000625245
-0.000490253
-0.000327771
-0.000129224
0.000121654
0.000434518
0.000780578
0.00110782
0.00132911
-0.00074986
-0.000780311
-0.000881132
-0.00101193
-0.00113021
-0.00119708
-0.00120279
-0.00115039
-0.00104012
-0.000902879
-0.000744336
-0.000547451
-0.000356958
-0.000190334
-7.90424e-05
-7.76409e-05
-0.00019416
-0.000417309
-0.000690546
-0.000928067
-0.000920135
-0.000959862
-0.000973412
-0.000999141
-0.001055
-0.00111466
-0.00114937
-0.00114526
-0.00107469
-0.000942885
-0.000793224
-0.0005998
-0.000377439
-0.000159721
9.39153e-05
0.000387907
0.000713375
0.00103569
0.00129899
0.00142699
-0.00102273
-0.00105296
-0.00103813
-0.00102334
-0.00104249
-0.0010753
-0.00109021
-0.00106786
-0.00099094
-0.000846785
-0.000679555
-0.000489807
-0.000265733
-5.6105e-05
0.000139851
0.00032399
0.00048249
0.000605109
0.000664081
0.000615173
0.000618082
-0.00262937
-0.00834126
-0.012432
-0.0127453
-0.0110472
-0.00908344
-0.00739959
-0.00608039
-0.00508754
-0.00437865
-0.00393247
-0.0036645
-0.00334644
-0.00279067
-0.00212352
-0.00159047
-0.00122243
-0.00092841
-0.000630771
-0.000239853
0.000243677
0.000716296
0.00115258
0.00162467
0.00215309
0.00267643
0.00313715
0.00354106
0.00395064
0.00439927
0.00483995
0.00522214
0.00557571
0.00596236
0.00638606
0.0068136
0.00724401
0.00770494
0.00819304
0.00867246
0.00913977
0.00962919
0.0101473
0.0106482
0.0111253
0.0116269
0.0121587
0.0126815
0.0132004
0.0137579
0.0143432
0.0149127
0.0154946
0.016102
0.0166982
0.0172961
0.0179224
0.0185584
0.0192124
0.0198914
0.0205754
0.0212598
0.0219582
0.0226663
0.0233926
0.0241473
0.0249227
0.0257061
0.0264978
0.0272995
0.0281167
0.0289552
0.0298142
0.030693
0.0315854
0.0324918
0.0334106
0.0343488
0.035306
0.0362829
0.0372779
0.0382915
0.0393237
0.0403733
0.0414428
0.0425304
0.0436418
0.0447711
0.0459242
0.0470922
0.0482887
0.0494993
0.0507383
0.0519907
0.0532691
0.0545599
0.055858
0.0570603
0.058252
0.000302012
-0.00271538
-0.0082341
-0.0122938
-0.0126741
-0.0110152
-0.00906336
-0.00738437
-0.00606802
-0.00507699
-0.00436927
-0.00392428
-0.00365796
-0.00334159
-0.00278679
-0.00211986
-0.00158694
-0.0012192
-0.000925519
-0.000628306
-0.000237717
0.000245767
0.000718368
0.00115448
0.00162638
0.00215472
0.00267802
0.00313868
0.00354246
0.00395189
0.00440047
0.00484115
0.0052233
0.00557676
0.00596333
0.006387
0.00681451
0.00724485
0.00770572
0.00819379
0.00867319
0.00914045
0.00962982
0.0101479
0.0106488
0.0111259
0.0116274
0.0121592
0.012682
0.0132008
0.0137583
0.0143436
0.0149131
0.015495
0.0161024
0.0166985
0.0172964
0.0179228
0.0185587
0.0192127
0.0198917
0.0205757
0.02126
0.0219585
0.0226666
0.0233928
0.0241475
0.0249229
0.0257063
0.026498
0.0272997
0.0281169
0.0289554
0.0298144
0.0306931
0.0315856
0.032492
0.0334107
0.034349
0.0353062
0.036283
0.037278
0.0382916
0.0393238
0.0403735
0.0414429
0.0425305
0.0436419
0.0447712
0.0459243
0.0470923
0.0482888
0.0494994
0.0507384
0.0519907
0.0532691
0.05456
0.0558581
0.0570603
0.0582521
-0.000110194
-0.00285524
-0.00804416
-0.0120342
-0.0125442
-0.0109671
-0.00903958
-0.00736774
-0.00605477
-0.00506624
-0.00436027
-0.00391603
-0.00365025
-0.00333498
-0.00278146
-0.00211556
-0.00158346
-0.00121619
-0.000922765
-0.000625934
-0.00023573
0.000247603
0.000720139
0.00115613
0.00162796
0.00215628
0.00267955
0.0031401
0.00354373
0.00395302
0.00440156
0.00484226
0.00522434
0.00557767
0.00596416
0.00638781
0.00681529
0.00724558
0.00770641
0.00819447
0.00867384
0.00914104
0.00963037
0.0101485
0.0106493
0.0111263
0.0116279
0.0121596
0.0126825
0.0132012
0.0137587
0.0143439
0.0149135
0.0154953
0.0161027
0.0166988
0.0172967
0.017923
0.0185589
0.0192129
0.0198919
0.0205759
0.0212603
0.0219587
0.0226668
0.023393
0.0241477
0.0249231
0.0257064
0.0264981
0.0272999
0.0281171
0.0289556
0.0298145
0.0306933
0.0315857
0.0324921
0.0334109
0.0343491
0.0353063
0.0362832
0.0372781
0.0382917
0.0393239
0.0403736
0.041443
0.0425306
0.043642
0.0447713
0.0459244
0.0470924
0.0482889
0.0494995
0.0507385
0.0519908
0.0532692
0.0545601
0.0558582
0.0570605
0.0582522
-0.000512087
-0.00298537
-0.00778968
-0.0116848
-0.0123513
-0.0108919
-0.00900287
-0.00734351
-0.0060366
-0.00505276
-0.00435056
-0.00390737
-0.0036403
-0.00332429
-0.00277229
-0.00210909
-0.001579
-0.00121234
-0.000918825
-0.000622326
-0.000232994
0.000249567
0.000721816
0.00115788
0.00162982
0.00215808
0.00268119
0.00314164
0.00354517
0.00395435
0.00440282
0.00484346
0.00522544
0.00557865
0.00596504
0.00638865
0.0068161
0.00724636
0.00770716
0.0081952
0.00867453
0.00914167
0.00963097
0.0101491
0.0106499
0.0111269
0.0116283
0.0121601
0.0126829
0.0132016
0.013759
0.0143443
0.0149138
0.0154956
0.016103
0.0166992
0.017297
0.0179233
0.0185592
0.0192131
0.0198922
0.0205761
0.0212605
0.0219589
0.022667
0.0233932
0.0241479
0.0249233
0.0257066
0.0264983
0.0273
0.0281172
0.0289557
0.0298147
0.0306934
0.0315859
0.0324923
0.033411
0.0343492
0.0353064
0.0362833
0.0372782
0.0382919
0.039324
0.0403737
0.0414431
0.0425307
0.0436421
0.0447714
0.0459245
0.0470925
0.048289
0.0494995
0.0507385
0.0519909
0.0532693
0.0545602
0.0558583
0.0570606
0.0582525
-0.000888171
-0.0030991
-0.00751297
-0.0113042
-0.0121297
-0.0108023
-0.00895848
-0.0073132
-0.00601322
-0.00503574
-0.00433954
-0.00389806
-0.00362759
-0.00330845
-0.00275824
-0.0021
-0.00157352
-0.00120728
-0.000912618
-0.000615939
-0.000228248
0.000252222
0.000723554
0.00115992
0.00163226
0.00216029
0.00268291
0.00314323
0.00354693
0.00395613
0.00440441
0.00484488
0.00522678
0.00557987
0.0059661
0.00638957
0.00681698
0.00724727
0.00770806
0.00819604
0.00867532
0.00914244
0.0096317
0.0101498
0.0106506
0.0111274
0.0116289
0.0121607
0.0126834
0.0132021
0.0137595
0.0143448
0.0149142
0.015496
0.0161034
0.0166995
0.0172973
0.0179236
0.0185595
0.0192134
0.0198925
0.0205764
0.0212607
0.0219591
0.0226672
0.0233934
0.0241481
0.0249235
0.0257068
0.0264985
0.0273002
0.0281174
0.0289559
0.0298149
0.0306936
0.031586
0.0324924
0.0334112
0.0343494
0.0353065
0.0362834
0.0372784
0.038292
0.0393241
0.0403738
0.0414432
0.0425308
0.0436422
0.0447715
0.0459246
0.0470925
0.048289
0.0494996
0.0507386
0.051991
0.0532694
0.0545602
0.0558584
0.0570609
0.0582528
-0.00123492
-0.0032178
-0.00724663
-0.010917
-0.011893
-0.0107057
-0.00891164
-0.00727984
-0.00598611
-0.00501574
-0.00432714
-0.00388799
-0.00361263
-0.00328844
-0.00274021
-0.00208897
-0.00156757
-0.0012014
-0.00090403
-0.000606
-0.000220427
0.00025638
0.000725792
0.00116253
0.00163551
0.00216298
0.00268458
0.00314466
0.00354885
0.00395833
0.00440637
0.00484659
0.00522851
0.00558159
0.00596751
0.00639064
0.006818
0.00724838
0.00770914
0.00819698
0.00867622
0.00914339
0.00963264
0.0101506
0.0106514
0.0111282
0.0116296
0.0121613
0.012684
0.0132026
0.01376
0.0143453
0.0149147
0.0154964
0.0161039
0.0166999
0.0172977
0.017924
0.0185598
0.0192137
0.0198928
0.0205767
0.021261
0.0219594
0.0226675
0.0233936
0.0241484
0.0249237
0.0257071
0.0264987
0.0273004
0.0281176
0.0289561
0.029815
0.0306938
0.0315862
0.0324926
0.0334113
0.0343495
0.0353067
0.0362835
0.0372785
0.0382921
0.0393243
0.0403739
0.0414433
0.0425309
0.0436423
0.0447716
0.0459247
0.0470926
0.0482891
0.0494997
0.0507387
0.0519911
0.0532694
0.0545604
0.0558586
0.0570612
0.0582533
-0.00155701
-0.00335641
-0.00700195
-0.0105253
-0.0116397
-0.0106014
-0.00886305
-0.00724439
-0.00595588
-0.00499295
-0.00431306
-0.00387696
-0.00359621
-0.00326599
-0.00271989
-0.00207704
-0.00156185
-0.00119544
-0.000893779
-0.00059289
-0.000209373
0.000262633
0.000729172
0.00116613
0.00163975
0.00216625
0.00268621
0.00314585
0.00355078
0.00396073
0.00440844
0.0048484
0.00523067
0.00558402
0.00596951
0.00639201
0.00681924
0.00724981
0.00771048
0.00819801
0.0086772
0.00914455
0.00963383
0.0101516
0.0106523
0.0111291
0.0116305
0.012162
0.0126847
0.0132033
0.0137606
0.0143459
0.0149153
0.015497
0.0161044
0.0167004
0.0172981
0.0179244
0.0185602
0.0192141
0.0198931
0.0205771
0.0212614
0.0219597
0.0226678
0.0233939
0.0241486
0.024924
0.0257073
0.026499
0.0273007
0.0281178
0.0289563
0.0298152
0.0306939
0.0315864
0.0324928
0.0334115
0.0343497
0.0353068
0.0362837
0.0372786
0.0382922
0.0393244
0.040374
0.0414434
0.042531
0.0436424
0.0447717
0.0459248
0.0470927
0.0482892
0.0494998
0.0507388
0.0519912
0.0532695
0.0545605
0.0558588
0.0570616
0.058254
-0.0018592
-0.00351331
-0.00677569
-0.0101245
-0.0113658
-0.0104874
-0.00881278
-0.00720771
-0.00592306
-0.00496735
-0.00429702
-0.00386487
-0.00357888
-0.00324222
-0.00269826
-0.00206457
-0.00155641
-0.00118976
-0.000882838
-0.000577829
-0.00019587
0.000270932
0.000734081
0.00117102
0.00164507
0.00217011
0.0026879
0.00314691
0.00355272
0.00396317
0.00441029
0.00484997
0.00523304
0.00558716
0.00597228
0.00639388
0.00682086
0.00725168
0.00771218
0.00819916
0.00867822
0.00914589
0.00963524
0.0101528
0.0106534
0.0111304
0.0116316
0.012163
0.0126855
0.0132041
0.0137614
0.0143466
0.014916
0.0154976
0.0161051
0.016701
0.0172986
0.0179249
0.0185607
0.0192146
0.0198936
0.0205775
0.0212618
0.0219601
0.0226681
0.0233942
0.0241489
0.0249243
0.0257076
0.0264993
0.0273009
0.028118
0.0289565
0.0298155
0.0306942
0.0315866
0.032493
0.0334117
0.0343499
0.035307
0.0362839
0.0372788
0.0382924
0.0393246
0.0403742
0.0414436
0.0425312
0.0436425
0.0447718
0.0459249
0.0470929
0.0482894
0.0494999
0.0507389
0.0519913
0.0532696
0.0545606
0.055859
0.0570622
0.0582549
-0.00213893
-0.00367759
-0.00656498
-0.00971537
-0.0110703
-0.0103623
-0.0087612
-0.00717079
-0.00588805
-0.00493877
-0.00427874
-0.00385168
-0.00356091
-0.00321761
-0.0026756
-0.00205141
-0.00155082
-0.0011842
-0.000871703
-0.000561876
-0.000180935
0.000280778
0.000740451
0.00117724
0.0016514
0.00217447
0.00268967
0.00314798
0.0035548
0.00396563
0.00441179
0.00485099
0.00523525
0.00559076
0.00597575
0.00639635
0.00682301
0.00725413
0.00771435
0.00820054
0.00867934
0.00914736
0.00963679
0.010154
0.0106546
0.0111319
0.0116331
0.0121641
0.0126865
0.0132051
0.0137623
0.0143473
0.0149167
0.0154985
0.0161059
0.0167018
0.0172993
0.0179255
0.0185613
0.0192151
0.0198942
0.0205781
0.0212623
0.0219605
0.0226685
0.0233946
0.0241493
0.0249246
0.025708
0.0264996
0.0273012
0.0281183
0.0289568
0.0298157
0.0306944
0.0315868
0.0324932
0.0334119
0.0343501
0.0353072
0.0362841
0.037279
0.0382926
0.0393248
0.0403744
0.0414437
0.0425313
0.0436427
0.044772
0.0459251
0.047093
0.0482895
0.0495001
0.050739
0.0519914
0.0532698
0.0545608
0.0558592
0.0570628
0.0582559
-0.00239051
-0.00384122
-0.00637354
-0.00930286
-0.0107529
-0.010224
-0.00870773
-0.00713407
-0.0058511
-0.00490694
-0.00425789
-0.00383722
-0.00354233
-0.00319219
-0.00265188
-0.00203734
-0.00154477
-0.00117848
-0.000860412
-0.00054549
-0.0001652
0.000291672
0.000747985