/*--------------------------------*- C++ -*----------------------------------*\
| =========                 |                                                 |
| \\      /  F ield         | OpenFOAM: The Open Source CFD Toolbox           |
|  \\    /   O peration     | Version:  3.0.1                                 |
|   \\  /    A nd           | Web:      www.OpenFOAM.org                      |
|    \\/     M anipulation  |                                                 |
\*---------------------------------------------------------------------------*/
FoamFile
{
    version     2.0;
    format      ascii;
    class       surfaceScalarField;
    location    "3.4";
    object      phi;
}
// * * * * * * * * * * * * * * * * * * * * * * * * * * * * * * * * * * * * * //

dimensions      [0 3 -1 0 0 0 0];

internalField   nonuniform List<scalar> 
19000
(
1.18893e-06
2.01074e-07
1.20934e-06
-2.21596e-08
1.15775e-06
8.36407e-07
1.06569e-06
-6.56157e-07
1.18241e-06
-3.97385e-07
1.19585e-06
1.53867e-07
1.13484e-06
1.03357e-07
1.156e-06
6.98719e-07
1.13244e-06
3.75398e-07
1.10817e-06
4.52116e-09
1.14282e-06
3.68434e-08
1.12293e-06
-4.76212e-07
1.15306e-06
1.24159e-07
1.12313e-06
-1.45696e-07
1.14707e-06
-6.95145e-08
1.13776e-06
1.60146e-08
1.14346e-06
9.46022e-09
1.1441e-06
1.8761e-07
1.13873e-06
1.98579e-07
2.69521e-07
1.11907e-06
1.2428e-06
1.82534e-07
1.26586e-06
-4.52206e-08
1.21073e-06
8.91541e-07
1.11667e-06
-5.621e-07
1.23674e-06
-5.17457e-07
1.25342e-06
1.37186e-07
1.18882e-06
1.67962e-07
1.21711e-06
6.70427e-07
1.18891e-06
4.03597e-07
1.16801e-06
2.54222e-08
1.19619e-06
8.66615e-09
1.17921e-06
-4.59237e-07
1.20197e-06
1.01401e-07
1.1835e-06
-1.27227e-07
1.19565e-06
-8.16589e-08
1.20538e-06
6.28217e-09
1.18846e-06
2.63765e-08
1.21576e-06
1.6031e-07
1.17821e-06
2.36128e-07
2.46335e-07
1.2014e-06
1.29728e-06
1.68033e-07
1.3225e-06
-7.04317e-08
1.26909e-06
9.44947e-07
1.17769e-06
-4.70705e-07
1.28862e-06
-6.28382e-07
1.31794e-06
1.07863e-07
1.24734e-06
2.38564e-07
1.27645e-06
6.41318e-07
1.24857e-06
4.31473e-07
1.23427e-06
3.97308e-08
1.25261e-06
-9.67562e-09
1.24374e-06
-4.5037e-07
1.25657e-06
8.85762e-08
1.2534e-06
-1.24065e-07
1.25104e-06
-7.92935e-08
1.27031e-06
-1.29899e-08
1.24761e-06
4.9074e-08
1.2669e-06
1.41023e-07
1.24696e-06
2.5607e-07
2.5527e-07
1.23802e-06
1.35272e-06
1.59416e-07
1.37967e-06
-9.73866e-08
1.33378e-06
9.90844e-07
1.25124e-06
-3.88164e-07
1.34109e-06
-7.18232e-07
1.38418e-06
6.47646e-08
1.31077e-06
3.11974e-07
1.33241e-06
6.19682e-07
1.31166e-06
4.52223e-07
1.30324e-06
4.81524e-08
1.31307e-06
-1.95061e-08
1.3113e-06
-4.48598e-07
1.31917e-06
8.07046e-08
1.32411e-06
-1.29006e-07
1.31606e-06
-7.12422e-08
1.33111e-06
-2.80421e-08
1.31731e-06
6.28765e-08
1.32116e-06
1.37168e-07
1.31618e-06
2.61054e-07
2.71776e-07
1.29967e-06
1.41026e-06
1.57508e-07
1.43769e-06
-1.24811e-07
1.4047e-06
1.02383e-06
1.33539e-06
-3.18856e-07
1.3955e-06
-7.7834e-07
1.44774e-06
1.25289e-08
1.38058e-06
3.7913e-07
1.38921e-06
6.11057e-07
1.37949e-06
4.61937e-07
1.375e-06
5.26401e-08
1.3793e-06
-2.38032e-08
1.3804e-06
-4.49694e-07
1.38782e-06
7.32791e-08
1.39479e-06
-1.35976e-07
1.38698e-06
-6.34319e-08
1.39422e-06
-3.52753e-08
1.38777e-06
6.93272e-08
1.38443e-06
1.40508e-07
1.38276e-06
2.62717e-07
2.85899e-07
1.36864e-06
1.47146e-06
1.6172e-07
1.49744e-06
-1.50784e-07
1.48067e-06
1.0406e-06
1.42571e-06
-2.63903e-07
1.45377e-06
-8.06403e-07
1.5077e-06
-4.13967e-08
1.45652e-06
4.30309e-07
1.45315e-06
6.14429e-07
1.45287e-06
4.62216e-07
1.45072e-06
5.47932e-08
1.45184e-06
-2.49269e-08
1.45206e-06
-4.49918e-07
1.4599e-06
6.54386e-08
1.46704e-06
-1.43109e-07
1.46066e-06
-5.70558e-08
1.46163e-06
-3.62456e-08
1.45694e-06
7.40174e-08
1.45069e-06
1.4676e-07
1.44926e-06
2.64147e-07
2.98433e-07
1.43672e-06
1.53779e-06
1.70149e-07
1.56035e-06
-1.73342e-07
1.55979e-06
1.04116e-06
1.5178e-06
-2.21915e-07
1.51792e-06
-8.06519e-07
1.56697e-06
-9.04415e-08
1.5363e-06
4.60975e-07
1.52686e-06
6.23874e-07
1.53165e-06
4.57424e-07
1.53055e-06
5.58956e-08
1.52969e-06
-2.40681e-08
1.52708e-06
-4.47315e-07
1.53438e-06
5.8147e-08
1.54126e-06
-1.49997e-07
1.53622e-06
-5.2016e-08
1.53304e-06
-3.30632e-08
1.5274e-06
7.96612e-08
1.51822e-06
1.55941e-07
1.51665e-06
2.65713e-07
3.1042e-07
1.50466e-06
1.60998e-06
1.80295e-07
1.62781e-06
-1.9117e-07
1.64033e-06
1.02864e-06
1.60903e-06
-1.90616e-07
1.58913e-06
-7.86617e-07
1.62947e-06
-1.3079e-07
1.61734e-06
4.7311e-07
1.6083e-06
6.32916e-07
1.61482e-06
4.50903e-07
1.61375e-06
5.69658e-08
1.61128e-06
-2.16017e-08
1.60542e-06
-4.41451e-07
1.61131e-06
5.22582e-08
1.61723e-06
-1.55923e-07
1.6135e-06
-4.82845e-08
1.60776e-06
-2.73187e-08
1.60118e-06
8.62358e-08
1.58885e-06
1.68273e-07
1.58688e-06
2.6768e-07
3.21805e-07
1.5755e-06
1.68787e-06
1.89996e-07
1.70064e-06
-2.03934e-07
1.72143e-06
1.00785e-06
1.69874e-06
-1.67925e-07
1.66733e-06
-7.55212e-07
1.6979e-06
-1.61354e-07
1.69862e-06
4.7239e-07
1.69383e-06
6.37701e-07
1.70086e-06
4.43877e-07
1.69942e-06
5.84015e-08
1.69551e-06
-1.76898e-08
1.68678e-06
-4.3272e-07
1.69106e-06
4.79812e-08
1.69504e-06
-1.59908e-07
1.69255e-06
-4.57955e-08
1.68524e-06
-2.00123e-08
1.67892e-06
9.2563e-08
1.6644e-06
1.82789e-07
1.6622e-06
2.69884e-07
3.31955e-07
1.65205e-06
1.77075e-06
1.9797e-07
1.77895e-06
-2.12135e-07
1.80341e-06
9.83386e-07
1.78768e-06
-1.52191e-07
1.75163e-06
-7.19166e-07
1.77309e-06
-1.82811e-07
1.7808e-06
4.64679e-07
1.78111e-06
6.37386e-07
1.7886e-06
4.36385e-07
1.78702e-06
5.99841e-08
1.78203e-06
-1.26969e-08
1.77112e-06
-4.21814e-07
1.77407e-06
4.50338e-08
1.77534e-06
-1.61175e-07
1.77389e-06
-4.43525e-08
1.76549e-06
-1.16117e-08
1.7606e-06
9.7461e-08
1.74555e-06
1.97837e-07
1.74371e-06
2.7172e-07
3.39917e-07
1.73575e-06
1.85791e-06
2.03804e-07
1.86246e-06
-2.16679e-07
1.88738e-06
9.5846e-07
1.87721e-06
-1.42021e-07
1.84094e-06
-6.82889e-07
1.85474e-06
-1.96612e-07
1.86526e-06
4.54159e-07
1.86978e-06
6.32861e-07
1.87788e-06
4.28289e-07
1.87655e-06
6.13105e-08
1.87104e-06
-7.18247e-09
1.85866e-06
-4.09432e-07
1.86082e-06
4.28701e-08
1.85899e-06
-1.59343e-07
1.85837e-06
-4.37327e-08
1.849e-06
-2.24525e-09
1.84618e-06
1.0028e-07
1.83217e-06
2.11853e-07
1.83123e-06
2.72657e-07
3.44705e-07
1.82644e-06
1.94901e-06
2.0763e-07
1.95083e-06
-2.18496e-07
1.97462e-06
9.34667e-07
1.96871e-06
-1.36106e-07
1.93439e-06
-6.4857e-07
1.94214e-06
-2.04362e-07
1.95322e-06
4.43077e-07
1.96065e-06
6.25433e-07
1.96935e-06
4.1959e-07
1.96849e-06
6.21714e-08
1.96298e-06
-1.67273e-09
1.94965e-06
-3.96106e-07
1.95165e-06
4.0868e-08
1.94672e-06
-1.54405e-07
1.94677e-06
-4.37863e-08
1.93647e-06
8.05448e-09
1.93576e-06
1.00991e-07
1.92388e-06
2.23731e-07
1.92387e-06
2.7267e-07
3.45623e-07
1.92295e-06
2.04401e-06
2.09807e-07
2.04387e-06
-2.18353e-07
2.06618e-06
9.12362e-07
2.06324e-06
-1.33168e-07
2.03152e-06
-6.16855e-07
2.03469e-06
-2.07532e-07
2.04549e-06
4.32283e-07
2.05475e-06
6.1617e-07
2.06398e-06
4.10356e-07
2.06351e-06
6.26429e-08
2.05834e-06
3.49758e-09
2.04436e-06
-3.82123e-07
2.04673e-06
3.84954e-08
2.03896e-06
-1.46629e-07
2.03962e-06
-4.44526e-08
2.0285e-06
1.91741e-08
2.02943e-06
1.00059e-07
2.02031e-06
2.32854e-07
2.02077e-06
2.7221e-07
3.42525e-07
2.02387e-06
2.14308e-06
2.10726e-07
2.14156e-06
-2.1683e-07
2.16272e-06
8.91201e-07
2.16156e-06
-1.32011e-07
2.13224e-06
-5.87534e-07
2.13207e-06
-2.07359e-07
2.14252e-06
4.21835e-07
2.15291e-06
6.05783e-07
2.16266e-06
4.00605e-07
2.16232e-06
6.29844e-08
2.15762e-06
8.19438e-09
2.14304e-06
-3.67547e-07
2.14612e-06
3.54167e-08
2.13593e-06
-1.36434e-07
2.13717e-06
-4.56985e-08
2.1255e-06
3.08432e-08
2.12732e-06
9.82448e-08
2.12121e-06
2.38965e-07
2.12156e-06
2.71853e-07
3.35904e-07
2.12818e-06
2.24649e-06
2.10728e-07
2.24399e-06
-2.14332e-07
2.26462e-06
8.70569e-07
2.26421e-06
-1.31604e-07
2.23675e-06
-5.60072e-07
2.23419e-06
-2.04801e-07
2.2446e-06
4.11429e-07
2.25566e-06
5.9472e-07
2.26597e-06
3.90293e-07
2.26546e-06
6.34965e-08
2.26124e-06
1.24158e-08
2.246e-06
-3.52312e-07
2.24991e-06
3.15089e-08
2.23777e-06
-1.2429e-07
2.2395e-06
-4.74346e-08
2.2277e-06
4.26522e-08
2.22953e-06
9.64088e-08
2.22647e-06
2.42022e-07
2.22632e-06
2.72003e-07
3.26729e-07
2.2355e-06
2.35454e-06
2.10066e-07
2.35131e-06
-2.11107e-07
2.37204e-06
8.49838e-07
2.37159e-06
-1.31146e-07
2.34544e-06
-5.33924e-07
2.34116e-06
-2.00527e-07
2.35193e-06
4.00662e-07
2.36336e-06
5.83295e-07
2.3743e-06
3.79353e-07
2.37337e-06
6.44181e-08
2.36957e-06
1.62232e-08
2.35359e-06
-3.36338e-07
2.35828e-06
2.68209e-08
2.34466e-06
-1.1067e-07
2.34669e-06
-4.94589e-08
2.33522e-06
5.41165e-08
2.33628e-06
9.53464e-08
2.33619e-06
2.42121e-07
2.3354e-06
2.72784e-07
3.1615e-07
2.34598e-06
2.46756e-06
2.08901e-07
2.46372e-06
-2.07264e-07
2.48507e-06
8.28488e-07
2.48401e-06
-1.30087e-07
2.45878e-06
-5.08696e-07
2.45319e-06
-1.94942e-07
2.46469e-06
3.89168e-07
2.47623e-06
5.71751e-07
2.48785e-06
3.67734e-07
2.48639e-06
6.58791e-08
2.48291e-06
1.97021e-08
2.46618e-06
-3.19602e-07
2.47147e-06
2.15222e-08
2.45684e-06
-9.60406e-08
2.45884e-06
-5.14581e-08
2.4482e-06
6.47596e-08
2.44791e-06
9.56404e-08
2.4505e-06
2.39529e-07
2.44924e-06
2.74039e-07
3.05227e-07
2.46017e-06
2.58589e-06
2.07306e-07
2.58142e-06
-2.02796e-07
2.60377e-06
8.06141e-07
2.60177e-06
-1.28086e-07
2.57726e-06
-4.84193e-07
2.57055e-06
-1.88227e-07
2.58303e-06
3.76685e-07
2.59449e-06
5.60288e-07
2.60681e-06
3.55419e-07
2.60479e-06
6.78961e-08
2.60154e-06
2.29493e-08
2.58412e-06
-3.02177e-07
2.58978e-06
1.58587e-08
2.57459e-06
-8.08484e-08
2.57619e-06
-5.30611e-08
2.56679e-06
7.41662e-08
2.56484e-06
9.75849e-08
2.56964e-06
2.34731e-07
2.56832e-06
2.7536e-07
2.94812e-07
2.57873e-06
2.70984e-06
2.05292e-07
2.70467e-06
-1.97624e-07
2.72826e-06
7.82554e-07
2.72513e-06
-1.24956e-07
2.70134e-06
-4.60402e-07
2.69352e-06
-1.80414e-07
2.70714e-06
3.63073e-07
2.71836e-06
5.4906e-07
2.73134e-06
3.42445e-07
2.72885e-06
7.03874e-08
2.72571e-06
2.60825e-08
2.70778e-06
-2.84238e-07
2.71351e-06
1.01196e-08
2.69819e-06
-6.55208e-08
2.69901e-06
-5.38883e-08
2.69115e-06
8.20333e-08
2.68755e-06
1.01184e-07
2.69392e-06
2.28361e-07
2.69306e-06
2.76217e-07
2.85508e-07
2.70237e-06
2.83973e-06
2.02826e-07
2.83374e-06
-1.91634e-07
2.85871e-06
7.57588e-07
2.85436e-06
-1.20601e-07
2.83139e-06
-4.37433e-07
2.82243e-06
-1.71455e-07
2.83721e-06
3.48295e-07
2.8481e-06
5.38164e-07
2.86164e-06
3.28902e-07
2.85884e-06
7.31945e-08
2.85567e-06
2.92554e-08
2.83747e-06
-2.66042e-07
2.843e-06
4.59254e-09
2.82788e-06
-5.04076e-08
2.82765e-06
-5.36554e-08
2.82145e-06
8.82348e-08
2.81643e-06
1.06204e-07
2.82371e-06
2.21078e-07
2.82381e-06
2.76115e-07
2.77643e-07
2.83168e-06
2.97587e-06
1.99856e-07
2.96894e-06
-1.84704e-07
2.99535e-06
7.31169e-07
2.98972e-06
-1.14965e-07
2.96774e-06
-4.15453e-07
2.95757e-06
-1.6129e-07
2.97347e-06
3.32402e-07
2.984e-06
5.2763e-07
2.99796e-06
3.14939e-07
2.99506e-06
7.60942e-08
2.99165e-06
3.26641e-08
2.97349e-06
-2.47876e-07
2.97857e-06
-4.8537e-10
2.96392e-06
-3.57606e-08
2.96246e-06
-5.21929e-08
2.95788e-06
9.28133e-08
2.9518e-06
1.12286e-07
2.95945e-06
2.13423e-07
2.96085e-06
2.74716e-07
2.71291e-07
2.9672e-06
3.11854e-06
1.96325e-07
3.11056e-06
-1.76726e-07
3.13847e-06
7.0326e-07
3.13151e-06
-1.08003e-07
3.11068e-06
-3.94628e-07
3.09928e-06
-1.49891e-07
3.11618e-06
3.15505e-07
3.12639e-06
5.17421e-07
3.14057e-06
3.00762e-07
3.13783e-06
7.88285e-08
3.13398e-06
3.6517e-08
3.1161e-06
-2.29998e-07
3.12057e-06
-4.95081e-09
3.10653e-06
-2.17247e-08
3.10379e-06
-4.94485e-08
3.10066e-06
9.59376e-08
3.09391e-06
1.19033e-07
3.10153e-06
2.05806e-07
3.10441e-06
2.71834e-07
2.66329e-07
3.10938e-06
3.26805e-06
1.92182e-07
3.25894e-06
-1.67609e-07
3.28835e-06
6.73843e-07
3.28003e-06
-9.96833e-08
3.26049e-06
-3.75084e-07
3.24789e-06
-1.37286e-07
3.26562e-06
2.97766e-07
3.27562e-06
5.07427e-07
3.28975e-06
2.86632e-07
3.28746e-06
8.11123e-08
3.28297e-06
4.10121e-08
3.26556e-06
-2.12586e-07
3.26935e-06
-8.7476e-09
3.25596e-06
-8.32727e-09
3.25196e-06
-4.54477e-08
3.2501e-06
9.77942e-08
3.24302e-06
1.26114e-07
3.25028e-06
1.98543e-07
3.25475e-06
2.6736e-07
2.62496e-07
3.25859e-06
3.42473e-06
1.87385e-07
3.4144e-06
-1.57285e-07
3.44533e-06
6.42914e-07
3.43565e-06
-8.99966e-08
3.41744e-06
-3.5688e-07
3.40373e-06
-1.23573e-07
3.42209e-06
2.79402e-07
3.43206e-06
4.97465e-07
3.44583e-06
2.72855e-07
3.44428e-06
8.26642e-08
3.439e-06
4.6292e-08
3.42212e-06
-1.95701e-07
3.4253e-06
-1.19336e-08
3.41248e-06
4.49857e-09
3.40727e-06
-4.02442e-08
3.40654e-06
9.85282e-08
3.39935e-06
1.33298e-07
3.406e-06
1.91901e-07
3.41214e-06
2.61216e-07
2.59428e-07
3.41521e-06
3.5889e-06
1.819e-07
3.57732e-06
-1.45705e-07
3.60974e-06
6.1049e-07
3.59871e-06
-7.89698e-08
3.58184e-06
-3.40008e-07
3.56719e-06
-1.08918e-07
3.5859e-06
2.60686e-07
3.59608e-06
4.87283e-07
3.60917e-06
2.59771e-07
3.6086e-06
8.32337e-08
3.60249e-06
5.23988e-08
3.58606e-06
-1.79266e-07
3.58878e-06
-1.4655e-08
3.57642e-06
1.68521e-08
3.57007e-06
-3.38874e-08
3.57034e-06
9.82602e-08
3.56325e-06
1.40382e-07
3.56898e-06
1.86173e-07
3.57682e-06
2.53373e-07
2.56637e-07
3.57961e-06
3.7609e-06
1.75705e-07
3.74804e-06
-1.32842e-07
3.78191e-06
5.76619e-07
3.76962e-06
-6.66801e-08
3.75401e-06
-3.24394e-07
3.73864e-06
-9.35558e-08
3.75738e-06
2.41953e-07
3.7681e-06
4.7656e-07
3.78014e-06
2.47733e-07
3.78074e-06
8.26356e-08
3.77388e-06
5.92501e-08
3.75768e-06
-1.63065e-07
3.76016e-06
-1.71268e-08
3.7482e-06
2.88061e-08
3.74067e-06
-2.63525e-08
3.74187e-06
9.70562e-08
3.73513e-06
1.47126e-07
3.73962e-06
1.81677e-07
3.74902e-06
2.43973e-07
2.53512e-07
3.75215e-06
3.94111e-06
1.68784e-07
3.92696e-06
-1.18697e-07
3.96219e-06
5.41389e-07
3.94878e-06
-5.32629e-08
3.93428e-06
-3.09895e-07
3.91852e-06
-7.77991e-08
3.93687e-06
2.23607e-07
3.94849e-06
4.64933e-07
3.95916e-06
2.37062e-07
3.961e-06
8.07978e-08
3.95362e-06
6.6634e-08
3.93737e-06
-1.46814e-07
3.93977e-06
-1.95288e-08
3.92825e-06
4.03234e-08
3.91944e-06
-1.75451e-08
3.92149e-06
9.50117e-08
3.91546e-06
1.53157e-07
3.91841e-06
1.78722e-07
3.92894e-06
2.33449e-07
2.49349e-07
3.9331e-06
4.1299e-06
1.61133e-07
4.11451e-06
-1.03301e-07
4.15095e-06
5.04942e-07
4.1366e-06
-3.89137e-08
4.12302e-06
-2.9631e-07
4.10726e-06
-6.20375e-08
4.12474e-06
2.06119e-07
4.13766e-06
4.5202e-07
4.14671e-06
2.28013e-07
4.14972e-06
7.77859e-08
4.14213e-06
7.42228e-08
4.12552e-06
-1.30208e-07
4.12795e-06
-2.19506e-08
4.11705e-06
5.122e-08
4.10684e-06
-7.33382e-09
4.10953e-06
9.23181e-08
4.10464e-06
1.58053e-07
4.10597e-06
1.77386e-07
4.11686e-06
2.22562e-07
2.43532e-07
4.12268e-06
4.32768e-06
1.52759e-07
4.3111e-06
-8.67206e-08
4.34856e-06
4.67481e-07
4.33354e-06
-2.38939e-08
4.3206e-06
-2.8337e-07
4.3053e-06
-4.674e-08
4.32141e-06
1.90014e-07
4.33596e-06
4.37462e-07
4.34328e-06
2.20697e-07
4.34722e-06
7.38432e-08
4.33983e-06
8.16137e-08
4.32262e-06
-1.12996e-07
4.32502e-06
-2.43543e-08
4.31505e-06
6.11908e-08
4.30332e-06
4.39409e-09
4.3064e-06
8.92422e-08
4.30301e-06
1.61444e-07
4.30289e-06
1.77502e-07
4.31325e-06
2.12209e-07
2.35751e-07
4.32103e-06
4.53485e-06
1.43686e-07
4.51719e-06
-6.90662e-08
4.5554e-06
4.29274e-07
4.54004e-06
-8.53371e-09
4.5274e-06
-2.70733e-07
4.51311e-06
-3.24484e-08
4.5273e-06
1.7582e-07
4.54377e-06
4.20995e-07
4.54941e-06
2.15056e-07
4.55391e-06
6.93487e-08
4.54711e-06
8.84124e-08
4.52917e-06
-9.50556e-08
4.53137e-06
-2.65541e-08
4.52264e-06
6.99128e-08
4.50949e-06
1.7551e-08
4.51251e-06
8.62231e-08
4.51088e-06
1.63071e-07
4.50975e-06
1.78631e-07
4.51878e-06
2.03179e-07
2.26221e-07
4.52831e-06
4.75184e-06
1.33959e-07
4.73327e-06
-5.04975e-08
4.77188e-06
3.90669e-07
4.75658e-06
6.76823e-09
4.74384e-06
-2.57998e-07
4.73113e-06
-1.97345e-08
4.74295e-06
1.63998e-07
4.76137e-06
4.02581e-07
4.76564e-06
2.10779e-07
4.77022e-06
6.47734e-08
4.76435e-06
9.42825e-08
4.74567e-06
-7.63773e-08
4.7474e-06
-2.82864e-08
4.74021e-06
7.7109e-08
4.72587e-06
3.1886e-08
4.72833e-06
8.37677e-08
4.72857e-06
1.62829e-07
4.727e-06
1.80199e-07
4.73428e-06
1.95902e-07
2.15685e-07
4.74481e-06
4.97911e-06
1.23644e-07
4.95984e-06
-3.12242e-08
4.99842e-06
3.5209e-07
4.98366e-06
2.15262e-08
4.97036e-06
-2.44694e-07
4.95978e-06
-9.16e-09
4.96893e-06
1.54847e-07
4.98899e-06
3.82526e-07
4.99248e-06
2.07289e-07
4.99668e-06
6.0566e-08
4.99194e-06
9.90229e-08
4.97265e-06
-5.70876e-08
4.97359e-06
-2.92217e-08
4.96812e-06
8.2581e-08
4.95298e-06
4.70272e-08
4.95439e-06
8.23511e-08
4.95647e-06
1.60751e-07
4.955e-06
1.81667e-07
4.96053e-06
1.90373e-07
2.0515e-07
4.97107e-06
5.21713e-06
1.12831e-07
5.19742e-06
-1.15138e-08
5.23543e-06
3.14076e-07
5.2218e-06
3.51621e-08
5.20743e-06
-2.30327e-07
5.19946e-06
-1.18689e-09
5.20593e-06
1.48378e-07
5.22699e-06
3.61462e-07
5.23035e-06
2.03925e-07
5.23387e-06
5.70467e-08
5.23031e-06
1.02582e-07
5.21063e-06
-3.74051e-08
5.21044e-06
-2.90319e-08
5.20676e-06
8.62588e-08
5.19128e-06
6.25073e-08
5.19128e-06
8.23538e-08
5.19504e-06
1.56993e-07
5.19408e-06
1.82631e-07
5.19814e-06
1.86309e-07
1.95413e-07
5.20788e-06
5.46638e-06
1.01639e-07
5.44656e-06
8.30916e-09
5.48335e-06
2.77288e-07
5.4715e-06
4.70045e-08
5.45561e-06
-2.14429e-07
5.45051e-06
3.90538e-09
5.45474e-06
1.44154e-07
5.47594e-06
3.40257e-07
5.4797e-06
2.00173e-07
5.48238e-06
5.43666e-08
5.47991e-06
1.05047e-07
5.46011e-06
-1.7604e-08
5.45849e-06
-2.74152e-08
5.45659e-06
8.81626e-08
5.44125e-06
7.78471e-08
5.43959e-06
8.40131e-08
5.44474e-06
1.51837e-07
5.44463e-06
1.82742e-07
5.4476e-06
1.83341e-07
1.86926e-07
5.45609e-06
5.72739e-06
9.02057e-08
5.70784e-06
2.78624e-08
5.74254e-06
2.42585e-07
5.73327e-06
5.62783e-08
5.71551e-06
-1.96675e-07
5.71325e-06
6.16516e-09
5.71615e-06
1.41262e-07
5.7366e-06
3.19799e-07
5.74096e-06
1.95815e-07
5.74279e-06
5.25434e-08
5.74122e-06
1.06615e-07
5.72158e-06
2.03245e-09
5.71829e-06
-2.41205e-08
5.71804e-06
8.84131e-08
5.70339e-06
9.24958e-08
5.69992e-06
8.74789e-08
5.70607e-06
1.45687e-07
5.70719e-06
1.81627e-07
5.70932e-06
1.81211e-07
1.79749e-07
5.71649e-06
6.0007e-06
7.86954e-08
5.98184e-06
4.67218e-08
6.01329e-06
2.11138e-07
6.00752e-06
6.20446e-08
5.98792e-06
-1.77069e-07
5.98798e-06
6.10123e-09
5.99062e-06
1.38619e-07
6.00984e-06
3.00585e-07
6.01469e-06
1.90964e-07
6.01565e-06
5.15835e-08
6.01472e-06
1.07545e-07
5.99551e-06
2.12402e-08
5.99036e-06
-1.89662e-08
5.99156e-06
8.72056e-08
5.97823e-06
1.05831e-07
5.97294e-06
9.27675e-08
5.97953e-06
1.39098e-07
5.98226e-06
1.789e-07
5.98378e-06
1.79689e-07
1.73803e-07
5.98972e-06
6.2869e-06
6.72849e-08
6.26919e-06
6.44347e-08
6.29609e-06
1.84238e-07
6.29466e-06
6.34677e-08
6.27363e-06
-1.56031e-07
6.27513e-06
4.5952e-09
6.27843e-06
1.35319e-07
6.2962e-06
2.82818e-07
6.30118e-06
1.85989e-07
6.30128e-06
5.14771e-08
6.30078e-06
1.08044e-07
6.28227e-06
3.97559e-08
6.27525e-06
-1.19461e-08
6.27768e-06
8.47675e-08
6.26628e-06
1.17234e-07
6.25936e-06
9.96938e-08
6.26572e-06
1.32734e-07
6.27029e-06
1.7433e-07
6.27161e-06
1.78369e-07
1.69086e-07
6.27633e-06
6.5866e-06
5.61541e-08
6.5705e-06
8.05392e-08
6.59269e-06
1.62046e-07
6.59511e-06
6.10459e-08
6.57341e-06
-1.34328e-07
6.57529e-06
2.70753e-09
6.57943e-06
1.3118e-07
6.59527e-06
2.66985e-07
6.59992e-06
1.8133e-07
6.59956e-06
5.18462e-08
6.59964e-06
1.07963e-07
6.58229e-06
5.71073e-08
6.57358e-06
-3.24085e-09
6.57701e-06
8.13404e-08
6.56804e-06
1.26203e-07
6.55991e-06
1.07823e-07
6.56531e-06
1.27331e-07
6.57173e-06
1.6791e-07
6.57341e-06
1.76697e-07
1.65563e-07
6.57693e-06
6.90047e-06
4.54759e-08
6.88643e-06
9.45805e-08
6.90437e-06
1.44106e-07
6.90947e-06
5.5941e-08
6.88786e-06
-1.12719e-07
6.88931e-06
1.25504e-09
6.89387e-06
1.26622e-07
6.90733e-06
2.5353e-07
6.91184e-06
1.76815e-07
6.91127e-06
5.24203e-08
6.91207e-06
1.07156e-07
6.8963e-06
7.28851e-08
6.88618e-06
6.8792e-09
6.89021e-06
7.73079e-08
6.884e-06
1.32416e-07
6.87528e-06
1.16536e-07
6.87914e-06
1.23475e-07
6.88702e-06
1.6003e-07
6.88967e-06
1.74048e-07
1.63033e-07
6.8922e-06
7.2292e-06
3.54162e-08
7.21771e-06
1.06064e-07
7.23176e-06
1.30056e-07
7.23853e-06
4.91726e-08
7.21758e-06
-9.17632e-08
7.21807e-06
7.64901e-10
7.22362e-06
1.21065e-07
7.23521e-06
2.41941e-07
7.23899e-06
1.73038e-07
7.23798e-06
5.34312e-08
7.23932e-06
1.05818e-07
7.22531e-06
8.68946e-08
7.21396e-06
1.82211e-08
7.21803e-06
7.3247e-08
7.21471e-06
1.35729e-07
7.20612e-06
1.25129e-07
7.20812e-06
1.21479e-07
7.21671e-06
1.5144e-07
7.22083e-06
1.69925e-07
1.61044e-07
7.22282e-06
7.57352e-06
2.61267e-08
7.5652e-06
1.14375e-07
7.57552e-06
1.19735e-07
7.58317e-06
4.153e-08
7.5633e-06
-7.19005e-08
7.5629e-06
1.16975e-09
7.56932e-06
1.14649e-07
7.57974e-06
2.31513e-07
7.58235e-06
1.70429e-07
7.58042e-06
5.53651e-08
7.58228e-06
1.03953e-07
7.57021e-06
9.89721e-08
7.55782e-06
3.06078e-08
7.56127e-06
6.97998e-08
7.5608e-06
1.362e-07
7.55302e-06
1.32902e-07
7.55315e-06
1.21349e-07
7.56161e-06
1.4298e-07
7.56736e-06
1.64174e-07
1.58989e-07
7.56942e-06
7.93421e-06
1.77312e-08
7.92945e-06
1.19135e-07
7.93668e-06
1.12506e-07
7.94419e-06
3.40137e-08
7.92642e-06
-5.41257e-08
7.92566e-06
1.92595e-09
7.93342e-06
1.06889e-07
7.94286e-06
2.22076e-07
7.94259e-06
1.70696e-07
7.93918e-06
5.87762e-08
7.94174e-06
1.01398e-07
7.93179e-06
1.08916e-07
7.91869e-06
4.37091e-08
7.92091e-06
6.75764e-08
7.92293e-06
1.34188e-07
7.91661e-06
1.39222e-07
7.9151e-06
1.22856e-07
7.9227e-06
1.35375e-07
7.92984e-06
1.57035e-07
1.56268e-07
7.93256e-06
8.31208e-06
1.03344e-08
8.31086e-06
1.20357e-07
8.31638e-06
1.06986e-07
8.32322e-06
2.7174e-08
8.30809e-06
-3.89947e-08
8.30662e-06
3.38694e-09
8.31537e-06
9.81424e-08
8.32172e-06
2.15729e-07
8.31963e-06
1.72783e-07
8.31529e-06
6.31134e-08
8.31845e-06
9.824e-08
8.31072e-06
1.16642e-07
8.29745e-06
5.69822e-08
8.29794e-06
6.70914e-08
8.30186e-06
1.30261e-07
8.29749e-06
1.43598e-07
8.29483e-06
1.25518e-07
8.30103e-06
1.29168e-07
8.30905e-06
1.4902e-07
1.52469e-07
8.31285e-06
8.70797e-06
4.02302e-09
8.71035e-06
1.17984e-07
8.71418e-06
1.03155e-07
8.72188e-06
1.94694e-08
8.70696e-06
-2.40752e-08
8.69633e-06
1.40186e-08
8.70184e-06
9.26372e-08
8.71375e-06
2.03818e-07
8.71461e-06
1.7192e-07
8.71008e-06
6.76463e-08
8.7133e-06
9.50179e-08
8.70776e-06
1.2218e-07
8.69478e-06
6.99643e-08
8.69342e-06
6.84494e-08
8.69843e-06
1.25253e-07
8.69629e-06
1.4574e-07
8.69309e-06
1.28719e-07
8.69761e-06
1.24639e-07
8.70587e-06
1.40761e-07
1.47448e-07
8.71089e-06
9.1228e-06
-1.15909e-09
9.12845e-06
1.12337e-07
9.12983e-06
1.01768e-07
9.13347e-06
1.58325e-08
9.11927e-06
-9.87821e-09
9.10941e-06
2.38842e-08
9.11532e-06
8.67231e-08
9.12824e-06
1.90898e-07
9.12945e-06
1.70708e-07
9.12403e-06
7.30675e-08
9.12699e-06
9.20664e-08
9.12358e-06
1.25585e-07
9.11142e-06
8.21282e-08
9.10839e-06
7.14793e-08
9.11369e-06
1.19952e-07
9.11379e-06
1.45642e-07
9.11074e-06
1.31763e-07
9.11357e-06
1.21808e-07
9.12146e-06
1.32878e-07
1.41339e-07
9.12756e-06
9.55749e-06
-5.19165e-09
9.56536e-06
1.04469e-07
9.56542e-06
1.01708e-07
9.56726e-06
1.39959e-08
9.55668e-06
6.99763e-10
9.54612e-06
3.44428e-08
9.5496e-06
8.32486e-08
9.56255e-06
1.77949e-07
9.56454e-06
1.68714e-07
9.55825e-06
7.93608e-08
9.56056e-06
8.97483e-08
9.55907e-06
1.27078e-07
9.54817e-06
9.30298e-08
9.54381e-06
7.58369e-08
9.54874e-06
1.15024e-07
9.55078e-06
1.436e-07
9.54849e-06
1.34052e-07
9.54988e-06
1.20424e-07
9.55685e-06
1.25908e-07
1.34482e-07
9.5637e-06
1.0013e-05
-8.09651e-09
1.00225e-05
9.49709e-08
1.00224e-05
1.01809e-07
1.00231e-05
1.33516e-08
1.00148e-05
8.94635e-09
1.00041e-05
4.51897e-08
1.0005e-05
8.23182e-08
1.00175e-05
1.65489e-07
1.00205e-05
1.6573e-07
1.00138e-05
8.60405e-08
1.00151e-05
8.84765e-08
1.00151e-05
1.26987e-07
1.00058e-05
1.02326e-07
1.00006e-05
8.11107e-08
1.00047e-05
1.10864e-07
1.00083e-05
1.40081e-07
1.00071e-05
1.35183e-07
1.00075e-05
1.19999e-07
1.00133e-05
1.20202e-07
1.27365e-07
1.00204e-05
1.04905e-05
-9.95845e-09
1.05014e-05
8.40882e-08
1.05015e-05
1.01714e-07
1.05006e-05
1.42509e-08
1.04945e-05
1.50171e-08
1.04842e-05
5.55212e-08
1.04828e-05
8.37148e-08
1.04941e-05
1.54202e-07
1.04981e-05
1.61747e-07
1.04915e-05
9.25808e-08
1.04917e-05
8.83349e-08
1.04929e-05
1.25763e-07
1.04854e-05
1.09813e-07
1.04796e-05
8.68628e-08
1.04828e-05
1.07699e-07
1.04873e-05
1.356e-07
1.04874e-05
1.35027e-07
1.04875e-05
1.1996e-07
1.04918e-05
1.15838e-07
1.20536e-07
1.04987e-05
1.0991e-05
-1.09289e-08
1.10026e-05
7.2445e-08
1.10036e-05
1.00788e-07
1.10006e-05
1.71787e-08
1.09963e-05
1.93617e-08
1.09872e-05
6.46474e-08
1.0984e-05
8.68978e-08
1.09935e-05
1.44651e-07
1.09984e-05
1.56917e-07
1.09924e-05
9.85676e-08
1.09915e-05
8.92245e-08
1.09934e-05
1.23841e-07
1.09877e-05
1.15534e-07
1.09819e-05
9.26437e-08
1.0984e-05
1.05574e-07
1.0989e-05
1.30654e-07
1.09904e-05
1.33593e-07
1.09905e-05
1.1984e-07
1.09938e-05
1.1258e-07
1.14426e-07
1.09999e-05
1.15156e-05
-1.11955e-08
1.15273e-05
6.08176e-08
1.15296e-05
9.84911e-08
1.15241e-05
2.26058e-08
1.15207e-05
2.28291e-08
1.15138e-05
7.15228e-08
1.15097e-05
9.10302e-08
1.15172e-05
1.37072e-07
1.15225e-05
1.51673e-07
1.15173e-05
1.03723e-07
1.15156e-05
9.09464e-08
1.15179e-05
1.21568e-07
1.15138e-05
1.19567e-07
1.15084e-05
9.80979e-08
1.15096e-05
1.04364e-07
1.15146e-05
1.25646e-07
1.15171e-05
1.31048e-07
1.15177e-05
1.19334e-07
1.15202e-05
1.10066e-07
1.09252e-07
1.15253e-05
1.20656e-05
-1.09622e-08
1.20764e-05
5.00226e-08
1.208e-05
9.48751e-08
1.20721e-05
3.04867e-08
1.20688e-05
2.61399e-08
1.2065e-05
7.53493e-08
1.20609e-05
9.51133e-08
1.20664e-05
1.31529e-07
1.20716e-05
1.46513e-07
1.20674e-05
1.07917e-07
1.20651e-05
9.32259e-08
1.20675e-05
1.19199e-07
1.2065e-05
1.22021e-07
1.20602e-05
1.02967e-07
1.20606e-05
1.03908e-07
1.20654e-05
1.20875e-07
1.20688e-05
1.27629e-07
1.20699e-05
1.18273e-07
1.2072e-05
1.07965e-07
1.04961e-07
1.20763e-05
1.2642e-05
-1.0413e-08
1.2651e-05
4.10662e-08
1.26551e-05
9.07724e-08
1.26465e-05
3.91369e-08
1.26428e-05
2.97665e-08
1.26418e-05
7.63497e-08
1.26387e-05
9.8237e-08
1.26424e-05
1.27828e-07
1.26471e-05
1.41855e-07
1.26438e-05
1.11175e-07
1.26413e-05
9.57587e-08
1.26435e-05
1.16934e-07
1.26425e-05
1.23078e-07
1.26384e-05
1.07033e-07
1.26383e-05
1.04034e-07
1.26426e-05
1.16525e-07
1.26467e-05
1.23599e-07
1.26484e-05
1.16584e-07
1.26503e-05
1.06009e-07
1.01345e-07
1.26539e-05
1.32462e-05
-9.69447e-09
1.32524e-05
3.48964e-08
1.32574e-05
8.57283e-08
1.32495e-05
4.71089e-08
1.32449e-05
3.43627e-08
1.32456e-05
7.56018e-08
1.3244e-05
9.98887e-08
1.32464e-05
1.2541e-07
1.32503e-05
1.37932e-07
1.32478e-05
1.13691e-07
1.32452e-05
9.8318e-08
1.32473e-05
1.14868e-07
1.32474e-05
1.22982e-07
1.32443e-05
1.10136e-07
1.32438e-05
1.04498e-07
1.32476e-05
1.12737e-07
1.3252e-05
1.19193e-07
1.32543e-05
1.14283e-07
1.32563e-05
1.04025e-07
9.81759e-08
1.32595e-05
1.38794e-05
-8.96598e-09
1.38839e-05
3.0388e-08
1.38895e-05
8.02157e-08
1.38824e-05
5.4195e-08
1.38766e-05
4.01361e-08
1.38778e-05
7.44007e-08
1.38777e-05
9.99628e-08
1.38796e-05
1.23563e-07
1.38827e-05
1.34806e-07
1.38807e-05
1.15688e-07
1.38782e-05
1.00775e-07
1.38801e-05
1.13019e-07
1.38811e-05
1.21977e-07
1.3879e-05
1.12199e-07
1.38785e-05
1.05016e-07
1.38817e-05
1.09554e-07
1.38862e-05
1.1467e-07
1.38891e-05
1.11419e-07
1.38912e-05
1.01935e-07
9.5255e-08
1.38941e-05
1.4543e-05
-8.32556e-09
1.45457e-05
2.77563e-08
1.45517e-05
7.41881e-08
1.45461e-05
5.98044e-08
1.45394e-05
4.67972e-08
1.454e-05
7.37739e-08
1.45413e-05
9.87375e-08
1.45432e-05
1.2165e-07
1.45456e-05
1.32336e-07
1.4544e-05
1.17289e-07
1.45417e-05
1.03091e-07
1.45433e-05
1.11439e-07
1.4545e-05
1.20243e-07
1.4544e-05
1.13272e-07
1.45436e-05
1.05356e-07
1.45463e-05
1.0688e-07
1.45507e-05
1.10293e-07
1.4554e-05
1.08067e-07
1.45563e-05
9.96855e-08
9.24493e-08
1.45591e-05
1.52384e-05
-7.82037e-09
1.52399e-05
2.6241e-08
1.52456e-05
6.84565e-08
1.52416e-05
6.38008e-08
1.52346e-05
5.37861e-08
1.52341e-05
7.42706e-08
1.52361e-05
9.68121e-08
1.52384e-05
1.1929e-07
1.52406e-05
1.30209e-07
1.52393e-05
1.18568e-07
1.52371e-05
1.05235e-07
1.52384e-05
1.10162e-07
1.52407e-05
1.17989e-07
1.52406e-05
1.13367e-07
1.52405e-05
1.05418e-07
1.52428e-05
1.04541e-07
1.52469e-05
1.06219e-07
1.52506e-05
1.04374e-07
1.52531e-05
9.71958e-08
8.97156e-08
1.52558e-05
1.59669e-05
-7.4211e-09
1.59677e-05
2.54864e-08
1.59727e-05
6.34478e-08
1.59702e-05
6.62553e-08
1.59636e-05
6.0457e-08
1.59619e-05
7.59383e-08
1.59638e-05
9.49121e-08
1.59667e-05
1.16427e-07
1.59689e-05
1.27996e-07
1.59679e-05
1.19551e-07
1.5966e-05
1.07176e-07
1.5967e-05
1.0914e-07
1.59695e-05
1.15504e-07
1.59703e-05
1.12531e-07
1.59706e-05
1.05093e-07
1.59728e-05
1.02408e-07
1.59765e-05
1.02457e-07
1.59804e-05
1.00532e-07
1.59832e-05
9.43985e-08
8.70387e-08
1.59858e-05
1.67302e-05
-7.05665e-09
1.67303e-05
2.54651e-08
1.67344e-05
5.93388e-08
1.67333e-05
6.73122e-08
1.67276e-05
6.61975e-08
1.6725e-05
7.84958e-08
1.67263e-05
9.36244e-08
1.67295e-05
1.13266e-07
1.6732e-05
1.25426e-07
1.67315e-05
1.20126e-07
1.67298e-05
1.08858e-07
1.67306e-05
1.08354e-07
1.67331e-05
1.12949e-07
1.67347e-05
1.10955e-07
1.67356e-05
1.04224e-07
1.67376e-05
1.00378e-07
1.67411e-05
9.89682e-08
1.67449e-05
9.67034e-08
1.6748e-05
9.13347e-08
8.43614e-08
1.67506e-05
1.753e-05
-6.65817e-09
1.75299e-05
2.55728e-08
1.75327e-05
5.64998e-08
1.75325e-05
6.74868e-08
1.7528e-05
7.06746e-08
1.7525e-05
8.14904e-08
1.75255e-05
9.31904e-08
1.75286e-05
1.10178e-07
1.75315e-05
1.22485e-07
1.75316e-05
1.20071e-07
1.75302e-05
1.10193e-07
1.75308e-05
1.07768e-07
1.75334e-05
1.10383e-07
1.75354e-05
1.08907e-07
1.75369e-05
1.02785e-07
1.7539e-05
9.82884e-08
1.75422e-05
9.57193e-08
1.7546e-05
9.29416e-08
1.75492e-05
8.80924e-08
8.15984e-08
1.7552e-05
1.83679e-05
-6.16574e-09
1.83677e-05
2.57303e-08
1.83695e-05
5.47417e-08
1.83697e-05
6.72752e-08
1.83665e-05
7.38199e-08
1.83636e-05
8.44402e-08
1.83632e-05
9.35232e-08
1.83659e-05
1.07548e-07
1.8369e-05
1.19319e-07
1.83698e-05
1.19268e-07
1.8369e-05
1.11062e-07
1.83695e-05
1.07266e-07
1.83719e-05
1.07922e-07
1.83743e-05
1.06501e-07
1.83762e-05
1.00918e-07
1.83785e-05
9.59935e-08
1.83816e-05
9.26161e-08
1.83853e-05
8.92699e-08
1.83887e-05
8.47116e-08
7.87156e-08
1.83915e-05
1.92458e-05
-5.55157e-09
1.92457e-05
2.58506e-08
1.92466e-05
5.38265e-08
1.92468e-05
6.70895e-08
1.92447e-05
7.58526e-08
1.92422e-05
8.69155e-08
1.92414e-05
9.43807e-08
1.92433e-05
1.05632e-07
1.92465e-05
1.16114e-07
1.9248e-05
1.17813e-07
1.92477e-05
1.11305e-07
1.92483e-05
1.0669e-07
1.92506e-05
1.05648e-07
1.92533e-05