/*--------------------------------*- C++ -*----------------------------------*\
| =========                 |                                                 |
| \\      /  F ield         | OpenFOAM: The Open Source CFD Toolbox           |
|  \\    /   O peration     | Version:  3.0.1                                 |
|   \\  /    A nd           | Web:      www.OpenFOAM.org                      |
|    \\/     M anipulation  |                                                 |
\*---------------------------------------------------------------------------*/
FoamFile
{
    version     2.0;
    format      ascii;
    class       volVectorField;
    location    "3.4";
    object      U;
}
// * * * * * * * * * * * * * * * * * * * * * * * * * * * * * * * * * * * * * //

dimensions      [0 1 -1 0 0 0 0];

internalField   nonuniform List<vector> 
9600
(
(0.823183 0.00215677 0)
(1.1944 -6.87857e-05 0)
(0.890811 0.00958279 0)
(1.08272 -0.00940283 0)
(0.751377 -0.0042232 0)
(1.25937 0.0025542 0)
(0.804315 0.000905746 0)
(1.11966 0.0128718 0)
(0.87314 0.0070836 0)
(1.05904 -0.00030375 0)
(0.844443 0.00149164 0)
(1.10138 -0.0124557 0)
(0.832418 0.00403821 0)
(1.12908 -0.00503245 0)
(0.804295 -0.00164226 0)
(1.14766 0.000349937 0)
(0.810198 0.000283154 0)
(1.13443 0.00843065 0)
(0.829003 0.00849058 0)
(1.11065 0.0137874 0)
(0.830941 0.00194913 0)
(1.1832 -0.000367215 0)
(0.898324 0.0101779 0)
(1.07242 -0.00786232 0)
(0.760726 -0.00654776 0)
(1.2442 0.00216396 0)
(0.821181 0.0022114 0)
(1.10558 0.0125455 0)
(0.893365 0.00769279 0)
(1.04367 0.000408184 0)
(0.870105 0.00039522 0)
(1.07559 -0.0119286 0)
(0.860828 0.00311387 0)
(1.09295 -0.00403975 0)
(0.848947 -0.00266066 0)
(1.09657 0.000522005 0)
(0.878216 0.000800464 0)
(1.05813 0.00714979 0)
(0.931527 0.0104487 0)
(0.991117 0.0118808 0)
(0.847198 0.00174341 0)
(1.16083 -0.000631242 0)
(0.913152 0.0109505 0)
(1.05942 -0.00667147 0)
(0.784071 -0.00824028 0)
(1.21219 0.00193958 0)
(0.857315 0.00345204 0)
(1.07477 0.0119444 0)
(0.923528 0.00830908 0)
(1.02027 0.000735245 0)
(0.907056 -0.000104212 0)
(1.04054 -0.0115496 0)
(0.905356 0.00253768 0)
(1.04756 -0.00371431 0)
(0.910801 -0.00275998 0)
(1.03672 -0.000110185 0)
(0.944589 0.00156654 0)
(1.00008 0.00605825 0)
(0.975299 0.0116529 0)
(0.968748 0.0121533 0)
(0.870497 0.00162114 0)
(1.12997 -0.000912267 0)
(0.93296 0.0115549 0)
(1.04684 -0.00555197 0)
(0.820226 -0.00962395 0)
(1.16619 0.00140499 0)
(0.90404 0.00463555 0)
(1.03714 0.011404 0)
(0.950988 0.00877258 0)
(0.999979 0.000958475 0)
(0.93979 -0.000396235 0)
(1.01133 -0.0114651 0)
(0.943904 0.00231513 0)
(1.01554 -0.00382678 0)
(0.955892 -0.00248504 0)
(1.0023 -0.000807761 0)
(0.976845 0.00221115 0)
(0.984198 0.00581369 0)
(0.981816 0.0119589 0)
(0.975783 0.0132213 0)
(0.897656 0.00157321 0)
(1.09524 -0.00121792 0)
(0.954117 0.0120216 0)
(1.03705 -0.00453992 0)
(0.862413 -0.010674 0)
(1.11445 0.000611479 0)
(0.947857 0.00581833 0)
(1.00651 0.0111125 0)
(0.969825 0.00906784 0)
(0.989761 0.00110255 0)
(0.961943 -0.000536471 0)
(0.995703 -0.0114925 0)
(0.967171 0.00214707 0)
(1.00153 -0.00403104 0)
(0.979168 -0.00216681 0)
(0.991298 -0.00122813 0)
(0.986845 0.0026377 0)
(0.984569 0.00590022 0)
(0.982487 0.0120065 0)
(0.979619 0.0141374 0)
(0.924771 0.00159009 0)
(1.06218 -0.00151969 0)
(0.972892 0.0123313 0)
(1.03114 -0.00371761 0)
(0.902338 -0.0112719 0)
(1.06699 -0.000247036 0)
(0.979304 0.0068362 0)
(0.990446 0.0110918 0)
(0.981443 0.0091596 0)
(0.988854 0.0011663 0)
(0.975634 -0.000592848 0)
(0.991699 -0.01151 0)
(0.97843 0.00192993 0)
(0.998355 -0.00421513 0)
(0.98971 -0.00195148 0)
(0.990587 -0.00134141 0)
(0.989214 0.00286973 0)
(0.985391 0.00603414 0)
(0.982647 0.0121004 0)
(0.979647 0.0148498 0)
(0.948462 0.00165992 0)
(1.03535 -0.00179075 0)
(0.986851 0.0124409 0)
(1.02855 -0.00308496 0)
(0.934521 -0.011435 0)
(1.03093 -0.00105561 0)
(0.996423 0.0075268 0)
(0.98723 0.0112513 0)
(0.989715 0.00910404 0)
(0.992923 0.00119106 0)
(0.984799 -0.000585496 0)
(0.993726 -0.0114745 0)
(0.983743 0.00171036 0)
(0.998974 -0.00442291 0)
(0.994646 -0.00177949 0)
(0.992511 -0.00126328 0)
(0.990136 0.00302237 0)
(0.984847 0.00634011 0)
(0.981621 0.0122144 0)
(0.978123 0.0154382 0)
(0.966838 0.0017597 0)
(1.01682 -0.00201298 0)
(0.995509 0.012363 0)
(1.02754 -0.00261498 0)
(0.957689 -0.0112615 0)
(1.00813 -0.00174845 0)
(1.00259 0.00786965 0)
(0.990484 0.0114516 0)
(0.996778 0.00899175 0)
(0.998297 0.00121345 0)
(0.99167 -0.000539436 0)
(0.997385 -0.0113608 0)
(0.986933 0.00152538 0)
(0.999952 -0.00463345 0)
(0.996909 -0.00163143 0)
(0.994294 -0.0010924 0)
(0.990982 0.00323615 0)
(0.984331 0.00685203 0)
(0.980394 0.0122877 0)
(0.976649 0.015984 0)
(0.979701 0.00186399 0)
(1.00596 -0.00217811 0)
(0.999932 0.0121506 0)
(1.02638 -0.00227718 0)
(0.973375 -0.0108749 0)
(0.996292 -0.0022906 0)
(1.0027 0.00794296 0)
(0.994798 0.0115889 0)
(1.00263 0.00886165 0)
(1.00297 0.00124296 0)
(0.996973 -0.000462102 0)
(1.00057 -0.0111665 0)
(0.989484 0.00138544 0)
(1.00033 -0.00479808 0)
(0.99761 -0.00152522 0)
(0.99512 -0.000863791 0)
(0.991703 0.00349936 0)
(0.984486 0.00747167 0)
(0.980214 0.012348 0)
(0.976531 0.0165254 0)
(0.988014 0.00195489 0)
(1.00058 -0.00228872 0)
(1.00175 0.0118657 0)
(1.02426 -0.00204177 0)
(0.983874 -0.0103881 0)
(0.9916 -0.00268338 0)
(1.00054 0.00785143 0)
(0.997771 0.0116254 0)
(1.00674 0.00871968 0)
(1.00616 0.0012773 0)
(1.00089 -0.000355498 0)
(1.00275 -0.0109088 0)
(0.991764 0.00128897 0)
(1.00019 -0.00488511 0)
(0.997456 -0.00146457 0)
(0.995037 -0.000577135 0)
(0.992148 0.00372365 0)
(0.985242 0.00812541 0)
(0.981405 0.0124226 0)
(0.978251 0.0170024 0)
(0.993131 0.00202454 0)
(0.998364 -0.00235451 0)
(1.00231 0.0115598 0)
(1.0213 -0.00188651 0)
(0.991024 -0.00987483 0)
(0.990709 -0.00294611 0)
(0.998166 0.00768421 0)
(0.999188 0.0115706 0)
(1.00912 0.00856596 0)
(1.00786 0.00130929 0)
(1.00359 -0.000230443 0)
(1.00406 -0.0106072 0)
(0.993814 0.00122477 0)
(0.999891 -0.00487993 0)
(0.997006 -0.00143435 0)
(0.994463 -0.000246047 0)
(0.992357 0.00385765 0)
(0.986355 0.00876652 0)
(0.983582 0.0124823 0)
(0.981409 0.0173231 0)
(0.996226 0.0020724 0)
(0.99765 -0.00238654 0)
(1.00244 0.0112637 0)
(1.01811 -0.00179212 0)
(0.995946 -0.00937685 0)
(0.991433 -0.00310356 0)
(0.996315 0.00749653 0)
(0.999621 0.0114513 0)
(1.01023 0.00839941 0)
(1.00845 0.00133088 0)
(1.00529 -9.92374e-05 0)
(1.00478 -0.0102784 0)
(0.995587 0.00117422 0)
(0.999673 -0.0047764 0)
(0.99661 -0.0014266 0)
(0.993826 0.000117998 0)
(0.992479 0.00390067 0)
(0.987623 0.00933746 0)
(0.986155 0.0125013 0)
(0.98519 0.0174367 0)
(0.998098 0.00210157 0)
(0.997523 -0.00239389 0)
(1.0025 0.0109878 0)
(1.01524 -0.00174158 0)
(0.999266 -0.00891202 0)
(0.992593 -0.00318063 0)
(0.995077 0.00731214 0)
(0.999623 0.0112919 0)
(1.01066 0.00822052 0)
(1.00844 0.00134241 0)
(1.00626 2.70735e-05 0)
(1.00512 -0.00993001 0)
(0.997019 0.00111541 0)
(0.999594 -0.00457539 0)
(0.996401 -0.00144596 0)
(0.993375 0.000514389 0)
(0.992637 0.00387174 0)
(0.98889 0.00978996 0)
(0.988639 0.0124944 0)
(0.988827 0.0173377 0)
(0.999225 0.0021162 0)
(0.997575 -0.00238366 0)
(1.00261 0.0107303 0)
(1.01299 -0.00171947 0)
(1.00138 -0.00848287 0)
(0.99366 -0.00319805 0)
(0.994339 0.00713527 0)
(0.999514 0.0111085 0)
(1.01079 0.00803104 0)
(1.00821 0.00135004 0)
(1.00674 0.000141748 0)
(1.00526 -0.00956519 0)
(0.998079 0.00103678 0)
(0.999593 -0.0042916 0)
(0.996368 -0.00148921 0)
(0.993165 0.000935606 0)
(0.992887 0.00379976 0)
(0.990042 0.0101023 0)
(0.990743 0.0124933 0)
(0.991847 0.0170499 0)
(0.999884 0.0021201 0)
(0.997652 -0.00236098 0)
(1.00278 0.0104839 0)
(1.01139 -0.00171194 0)
(1.00262 -0.00808363 0)
(0.994457 -0.00317235 0)
(0.993967 0.00696247 0)
(0.999431 0.0109099 0)
(1.01084 0.00783224 0)
(1.00796 0.00135892 0)
(1.00691 0.000245685 0)
(1.0053 -0.00918478 0)
(0.998802 0.000935478 0)
(0.999592 -0.00394194 0)
(0.996447 -0.00154703 0)
(0.993142 0.00136576 0)
(0.993222 0.0037228 0)
(0.99102 0.0102713 0)
(0.992365 0.0125181 0)
(0.994103 0.0166188 0)
(1.00025 0.00211634 0)
(0.997712 -0.00232949 0)
(1.00298 0.0102398 0)
(1.01033 -0.0017078 0)
(1.00327 -0.00770605 0)
(0.99498 -0.00311705 0)
(0.993854 0.0067877 0)
(0.999411 0.0107027 0)
(1.01088 0.00762149 0)
(1.00777 0.00137576 0)
(1.00691 0.000337458 0)
(1.0053 -0.00878352 0)
(0.999267 0.000809952 0)
(0.999545 -0.00354327 0)
(0.996582 -0.00160584 0)
(0.993227 0.00178881 0)
(0.993605 0.00367419 0)
(0.99182 0.0103034 0)
(0.993533 0.0125737 0)
(0.995673 0.0161044 0)
(1.00044 0.00210699 0)
(0.997757 -0.0022911 0)
(1.00318 0.00999101 0)
(1.00965 -0.00169862 0)
(1.00355 -0.00734401 0)
(0.995301 -0.0030394 0)
(0.993915 0.00660264 0)
(0.999446 0.0104938 0)
(1.01091 0.0073957 0)
(1.00764 0.0014031 0)
(1.0068 0.000419587 0)
(1.00529 -0.00836083 0)
(0.999565 0.000663931 0)
(0.999448 -0.00310801 0)
(0.996743 -0.00167679 0)
(0.993368 0.00218248 0)
(0.994002 0.00367465 0)
(0.992482 0.0102154 0)
(0.994348 0.0126509 0)
(0.996729 0.0155643 0)
(1.00053 0.00209307 0)
(0.997802 -0.00224587 0)
(1.00334 0.00973225 0)
(1.0092 -0.00167901 0)
(1.00364 -0.00699331 0)
(0.99551 -0.00294396 0)
(0.994083 0.00640236 0)
(0.999514 0.0102851 0)
(1.01091 0.0071566 0)
(1.00753 0.00144097 0)
(1.00664 0.000497901 0)
(1.00528 -0.00792278 0)
(0.99977 0.000507083 0)
(0.999317 -0.00265302 0)
(0.996917 -0.00174584 0)
(0.993546 0.00252795 0)
(0.994394 0.00373649 0)
(0.993062 0.010034 0)
(0.994923 0.0127265 0)
(0.997449 0.0150377 0)
(1.00055 0.00207507 0)
(0.997865 -0.00219304 0)
(1.00345 0.00945971 0)
(1.00888 -0.00164595 0)
(1.00365 -0.00665217 0)
(0.995686 -0.00283165 0)
(0.994306 0.00618363 0)
(0.999594 0.0100794 0)
(1.01084 0.00690422 0)
(1.00744 0.00149144 0)
(1.00643 0.000568828 0)
(1.00528 -0.0074673 0)
(0.999934 0.000343902 0)
(0.999177 -0.00219258 0)
(0.997098 -0.00178288 0)
(0.993762 0.00281433 0)
(0.994771 0.0038616 0)
(0.99361 0.00979135 0)
(0.995355 0.0127788 0)
(0.997969 0.0145505 0)
(1.00054 0.00205261 0)
(0.997962 -0.00213199 0)
(1.00349 0.00917118 0)
(1.00862 -0.00159717 0)
(1.00361 -0.00632225 0)
(0.995882 -0.00270166 0)
(0.994549 0.00594461 0)
(0.999676 0.00988001 0)
(1.01071 0.00663897 0)
(1.00733 0.00154937 0)
(1.00619 0.000642954 0)
(1.00529 -0.00700282 0)
(1.00008 0.000183341 0)
(0.999048 -0.00173207 0)
(0.99728 -0.00178287 0)
(0.994019 0.00304532 0)
(0.995131 0.00403918 0)
(0.994156 0.00951056 0)
(0.995711 0.0127938 0)
(0.998376 0.0141225 0)
(1.0005 0.00202545 0)
(0.998099 -0.00206186 0)
(1.00348 0.00886536 0)
(1.00838 -0.0015322 0)
(1.00354 -0.00600597 0)
(0.996122 -0.00255341 0)
(0.994791 0.00568617 0)
(0.999757 0.00968741 0)
(1.01052 0.00636526 0)
(1.00722 0.00161226 0)
(1.0059 0.000719251 0)
(1.00532 -0.0065382 0)
(1.00023 3.85071e-05 0)
(0.998941 -0.0012854 0)
(0.997456 -0.00174394 0)
(0.994316 0.0032307 0)
(0.995472 0.00425099 0)
(0.994716 0.00920339 0)
(0.996033 0.0127615 0)
(0.998717 0.0137656 0)
(1.00042 0.00199317 0)
(0.998273 -0.00198096 0)
(1.00342 0.00854157 0)
(1.00815 -0.00145048 0)
(1.00345 -0.00570533 0)
(0.996407 -0.00238631 0)
(0.995025 0.00540937 0)
(0.999835 0.00950202 0)
(1.01027 0.00608439 0)
(1.0071 0.00167685 0)
(1.00558 0.00079882 0)
(1.00534 -0.00607851 0)
(1.00038 -8.66061e-05 0)
(0.998857 -0.000856163 0)
(0.997622 -0.00167133 0)
(0.994649 0.00337108 0)
(0.995789 0.00448484 0)
(0.995288 0.00888245 0)
(0.996345 0.0126762 0)
(0.999008 0.0134829 0)
(1.00033 0.00195447 0)
(0.998475 -0.00188737 0)
(1.00332 0.00820041 0)
(1.00793 -0.00135043 0)
(1.00334 -0.00542137 0)
(0.996723 -0.00220355 0)
(0.995249 0.00511672 0)
(0.999911 0.00932121 0)
(1.00998 0.00579891 0)
(1.00698 0.00173314 0)
(1.00523 0.000900365 0)
(1.00536 -0.00563588 0)
(1.00054 -0.000193307 0)
(0.998791 -0.000442816 0)
(0.997775 -0.00155908 0)
(0.995011 0.00347167 0)
(0.996079 0.00473917 0)
(0.995863 0.00855855 0)
(0.996661 0.0125264 0)
(0.999256 0.0132643 0)
(1.00022 0.00190958 0)
(0.998689 -0.00178111 0)
(1.00321 0.00784068 0)
(1.00771 -0.00123187 0)
(1.00321 -0.00515696 0)
(0.997051 -0.0020004 0)
(0.995468 0.00481194 0)
(0.999981 0.00914372 0)
(1.00966 0.00551891 0)
(1.00686 0.0017742 0)
(1.00486 0.00101795 0)
(1.00538 -0.00520756 0)
(1.00071 -0.000283748 0)
(0.99874 -5.30381e-05 0)
(0.997916 -0.00141245 0)
(0.995396 0.00353296 0)
(0.996346 0.00501078 0)
(0.996429 0.00824183 0)
(0.99699 0.0122999 0)
(0.999461 0.0130976 0)
(1.00012 0.00185816 0)
(0.998902 -0.00166166 0)
(1.00309 0.00746263 0)
(1.00749 -0.00109537 0)
(1.00308 -0.00491261 0)
(0.997376 -0.00177722 0)
(0.99569 0.00449741 0)
(1.00004 0.00896366 0)
(1.00932 0.0052525 0)
(1.00674 0.00179751 0)
(1.00448 0.00115545 0)
(1.00537 -0.00479013 0)
(1.00089 -0.000365607 0)
(0.998699 0.000320269 0)
(0.998047 -0.00122631 0)
(0.9958 0.00355376 0)
(0.996595 0.00529664 0)
(0.996971 0.00794997 0)
(0.997342 0.0119875 0)
(0.999626 0.0129776 0)
(1.00003 0.00179921 0)
(0.999099 -0.00152768 0)
(1.00298 0.00706656 0)
(1.00726 -0.000942708 0)
(1.00296 -0.00468279 0)
(0.997684 -0.00154818 0)
(0.995921 0.00418221 0)
(1.00009 0.0087742 0)
(1.00898 0.00500234 0)
(1.00662 0.00179556 0)
(1.00412 0.00131456 0)
(1.00534 -0.00438016 0)
(1.0011 -0.000437329 0)
(0.998669 0.000688206 0)
(0.998172 -0.00100382 0)
(0.996223 0.00353305 0)
(0.996835 0.00559195 0)
(0.997476 0.00770795 0)
(0.997725 0.0115792 0)
(0.999761 0.0128817 0)
(0.999959 0.00173338 0)
(0.999273 -0.00137937 0)
(1.00288 0.00665256 0)
(1.00701 -0.000774321 0)
(1.00286 -0.00447199 0)
(0.997971 -0.0013116 0)
(0.996166 0.00386987 0)
(1.00012 0.00857236 0)
(1.00865 0.00477983 0)
(1.00649 0.00176456 0)
(1.00376 0.00148349 0)
(1.00528 -0.00396532 0)
(1.00133 -0.000500997 0)
(0.998651 0.00104766 0)
(0.998291 -0.000741884 0)
(0.996663 0.00347241 0)
(0.997079 0.00587391 0)
(0.997931 0.0075355 0)
(0.99814 0.0110804 0)
(0.999889 0.0127602 0)
(0.999913 0.00165959 0)
(0.999422 -0.00121683 0)
(1.0028 0.00622491 0)
(1.00675 -0.000592781 0)
(1.00278 -0.00427897 0)
(0.998237 -0.0010659 0)
(0.996426 0.00356351 0)
(1.00015 0.00834962 0)
(1.00832 0.0045923 0)
(1.00637 0.00170788 0)
(1.00343 0.00166088 0)
(1.00519 -0.00354136 0)
(1.00158 -0.000572377 0)
(0.99865 0.00139378 0)
(0.998403 -0.000423695 0)
(0.997121 0.00337512 0)
(0.997339 0.00611727 0)
(0.99833 0.00744964 0)
(0.998581 0.0105268 0)
(1.00004 0.0125519 0)
(0.999888 0.00157881 0)
(0.999547 -0.00104136 0)
(1.00274 0.00578499 0)
(1.00647 -0.00040261 0)
(1.00272 -0.00409171 0)
(0.998484 -0.000821507 0)
(0.996699 0.00328086 0)
(1.00017 0.00809882 0)
(1.008 0.00443747 0)
(1.00624 0.00162994 0)
(1.00312 0.00183867 0)
(1.00506 -0.00310739 0)
(1.00185 -0.000648061 0)
(0.998673 0.00171883 0)
(0.998503 -6.79071e-05 0)
(0.99759 0.00325176 0)
(0.997626 0.00630214 0)
(0.99867 0.00745321 0)
(0.999029 0.00997187 0)
(1.00023 0.0122068 0)
(0.999878 0.00149102 0)
(0.999652 -0.000852312 0)
(1.00269 0.00533158 0)
(1.00619 -0.000200953 0)
(1.00267 -0.00391342 0)
(0.998715 -0.000591402 0)
(0.996979 0.00303063 0)
(1.00018 0.00780768 0)
(1.00768 0.00431342 0)
(1.00612 0.00153628 0)
(1.00284 0.00200728 0)
(1.00491 -0.00265579 0)
(1.00212 -0.000718008 0)
(0.998722 0.0020073 0)
(0.998586 0.000332646 0)
(0.998066 0.0031254 0)
(0.99795 0.00641149 0)
(0.998957 0.00752378 0)
(0.999459 0.00947888 0)
(1.00048 0.0117181 0)
(0.999877 0.00139537 0)
(0.99974 -0.000651404 0)
(1.00264 0.00487041 0)
(1.00589 -7.61379e-07 0)
(1.00263 -0.00373655 0)
(0.998934 -0.000381107 0)
(0.997262 0.00281907 0)
(1.0002 0.00747659 0)
(1.00736 0.00421958 0)
(1.006 0.0014359 0)
(1.00258 0.00215512 0)
(1.00472 -0.00218277 0)
(1.0024 -0.000772573 0)
(0.998803 0.00224784 0)
(0.99865 0.000787511 0)
(0.998538 0.00301246 0)
(0.998317 0.00643379 0)
(0.999205 0.0076261 0)
(0.999844 0.00909461 0)
(1.00078 0.0111335 0)
(0.999881 0.00129435 0)
(0.999813 -0.000444011 0)
(1.0026 0.00440985 0)
(1.0056 0.000193304 0)
(1.00259 -0.00355515 0)
(0.999142 -0.000202837 0)
(0.99754 0.00265408 0)
(1.00022 0.00712173 0)
(1.00704 0.00414791 0)
(1.00588 0.00134074 0)
(1.00235 0.0022774 0)
(1.00451 -0.00169089 0)
(1.00267 -0.000809371 0)
(0.998918 0.00243909 0)
(0.998693 0.00127877 0)
(0.998992 0.00293338 0)
(0.998727 0.00637307 0)
(0.999433 0.00772511 0)
(1.00017 0.00882646 0)
(1.0011 0.0105275 0)
(0.999888 0.00118702 0)
(0.999874 -0.000230365 0)
(1.00256 0.00395103 0)
(1.0053 0.000379403 0)
(1.00255 -0.00336402 0)
(0.999341 -6.16911e-05 0)
(0.99781 0.00253642 0)
(1.00024 0.00674398 0)
(1.00672 0.00407889 0)
(1.00577 0.00126002 0)
(1.00214 0.00237073 0)
(1.00428 -0.00119112 0)
(1.00292 -0.000824359 0)
(0.999072 0.00257703 0)
(0.998716 0.00178858 0)
(0.999413 0.00290316 0)
(0.999173 0.00624532 0)
(0.99966 0.00779397 0)
(1.00043 0.008648 0)
(1.00142 0.00997748 0)
(0.999896 0.00107583 0)
(0.999922 -1.15052e-05 0)
(1.00252 0.00350175 0)
(1.00501 0.000547118 0)
(1.0025 -0.00314709 0)
(0.999534 3.3871e-05 0)
(0.998068 0.00245715 0)
(1.00026 0.00635694 0)
(1.0064 0.00400616 0)
(1.00566 0.00119686 0)
(1.00196 0.00243543 0)
(1.00403 -0.000687753 0)
(1.00316 -0.000800313 0)
(0.999269 0.0026624 0)
(0.998725 0.00230052 0)
(0.999792 0.00292703 0)
(0.99965 0.00606249 0)
(0.999898 0.00782132 0)
(1.00064 0.008519 0)
(1.00171 0.0095226 0)
(0.999904 0.000961344 0)
(0.999958 0.000209321 0)
(1.00248 0.00307206 0)
(1.00473 0.000685483 0)
(1.00244 -0.00290403 0)
(0.99972 7.7253e-05 0)
(0.998313 0.00240291 0)
(1.00029 0.00598192 0)
(1.00608 0.00392219 0)
(1.00554 0.00115117 0)
(1.00181 0.00247916 0)
(1.00376 -0.00018705 0)
(1.00338 -0.000731098 0)
(0.999512 0.00269835 0)
(0.998728 0.00280364 0)
(1.00012 0.00301247 0)
(1.00015 0.00583228 0)
(1.00016 0.00780555 0)
(1.0008 0.00841824 0)
(1.00194 0.00915261 0)
(0.999912 0.000844107 0)
(0.999981 0.000425232 0)
(1.00243 0.00267365 0)
(1.00446 0.000778393 0)
(1.00237 -0.00263314 0)
(0.999899 8.75806e-05 0)
(0.998548 0.00235768 0)
(1.00031 0.00562572 0)
(1.00577 0.00382477 0)
(1.00543 0.00112231 0)
(1.00169 0.00250581 0)
(1.00348 0.000309996 0)
(1.00357 -0.00061342 0)
(0.9998 0.00268358 0)
(0.998736 0.00327907 0)
(1.00038 0.003166 0)
(1.00065 0.00556659 0)
(1.00045 0.00773806 0)
(1.00093 0.00834721 0)
(1.00212 0.00884049 0)
(0.999921 0.000728742 0)
(0.999993 0.000625708 0)
(1.00237 0.00232691 0)
(1.0042 0.000824305 0)
(1.00228 -0.0023418 0)
(1.00007 7.30295e-05 0)
(0.998774 0.00230715 0)
(1.00033 0.00529453 0)
(1.00545 0.0037234 0)
(1.00531 0.00111174 0)
(1.00159 0.00252346 0)
(1.00319 0.00079064 0)
(1.00371 -0.000442334 0)
(1.00013 0.00262359 0)
(0.998762 0.00370629 0)
(1.00057 0.00339035 0)
(1.00115 0.00528367 0)
(1.00078 0.00759187 0)
(1.00104 0.0083075 0)
(1.00224 0.00857657 0)
(0.999929 0.000614313 0)
(0.999994 0.000812377 0)
(1.00231 0.00203872 0)
(1.00394 0.000814655 0)
(1.00219 -0.00203834 0)
(1.00023 4.59458e-05 0)
(0.998992 0.00224901 0)
(1.00035 0.00499113 0)
(1.00514 0.00362213 0)
(1.00519 0.00111359 0)
(1.00153 0.00253486 0)
(1.0029 0.00124423 0)
(1.00381 -0.000220274 0)
(1.0005 0.00253027 0)
(0.998821 0.00406411 0)
(1.00068 0.00367973 0)
(1.00162 0.00501911 0)
(1.00117 0.00734262 0)
(1.00114 0.00827166 0)
(1.0023 0.00837103 0)
(0.999938 0.000504393 0)
(0.999985 0.000975032 0)
(1.00223 0.00180738 0)
(1.0037 0.000761098 0)
(1.00209 -0.00172952 0)
(1.00038 1.8002e-05 0)
(0.999202 0.00217533 0)
(1.00036 0.00472865 0)
(1.00483 0.00352842 0)
(1.00508 0.00111736 0)
(1.0015 0.00253019 0)
(1.00262 0.00166658 0)
(1.00386 3.59551e-05 0)
(1.00088 0.00240675 0)
(0.998924 0.0043293 0)
(1.00073 0.00401494 0)
(1.00203 0.00482254 0)
(1.0016 0.00700918 0)
(1.00127 0.00820187 0)
(1.00231 0.00824164 0)
(0.999946 0.000400387 0)
(0.999969 0.00111608 0)
(1.00214 0.00162162 0)
(1.00347 0.000681233 0)
(1.00199 -0.00143145 0)
(1.00052 4.55815e-06 0)
(0.999408 0.00208522 0)
(1.00037 0.00450796 0)
(1.00453 0.00345049 0)
(1.00496 0.00112718 0)
(1.0015 0.00250871 0)
(1.00235 0.00205271 0)
(1.00386 0.000326706 0)
(1.00128 0.00226086 0)
(0.999087 0.00447848 0)
(1.00074 0.00434769 0)
(1.00236 0.00470261 0)
(1.00207 0.00661778 0)
(1.00145 0.00805145 0)
(1.00228 0.00817161 0)
(0.999955 0.000298567 0)
(0.999947 0.00122564 0)
(1.00203 0.00148448 0)
(1.00325 0.00058726 0)
(1.00188 -0.00114751 0)
(1.00063 3.36612e-06 0)
(0.999608 0.00198488 0)
(1.00039 0.00432782 0)
(1.00422 0.0033919 0)
(1.00484 0.00114541 0)
(1.00154 0.00246284 0)
(1.0021 0.00240023 0)
(1.00381 0.000663211 0)
(1.00168 0.00213261 0)
(0.999311 0.00452928 0)
(1.00071 0.00465979 0)
(1.0026 0.00466947 0)
(1.00255 0.00621762 0)
(1.00169 0.00780319 0)
(1.00223 0.00811058 0)
(0.999964 0.000214842 0)
(0.999921 0.00128485 0)
(1.00191 0.00138486 0)
(1.00304 0.000482498 0)
(1.00177 -0.000875655 0)
(1.00073 7.68436e-06 0)
(0.999809 0.00184582 0)
(1.00041 0.00416078 0)
(1.00391 0.00338049 0)
(1.0047 0.0012025 0)
(1.0016 0.00240062 0)
(1.00188 0.00268939 0)
(1.00371 0.00102351 0)
(1.00206 0.00203508 0)
(0.9996 0.00448662 0)
(1.00069 0.00492621 0)
(1.00275 0.00471449 0)
(1.003 0.00585502 0)
(1.00201 0.00747757 0)
(1.00222 0.00801945 0)
(0.999972 0.000136005 0)
(0.999893 0.00131551 0)
(1.00178 0.0013047 0)
(1.00284 0.00040153 0)
(1.00166 -0.000643686 0)
(1.00081 2.88061e-05 0)
(1.00001 0.00167541 0)
(1.00044 0.0039671 0)
(1.0036 0.00339921 0)
(1.00456 0.00129546 0)
(1.00168 0.00233952 0)
(1.00169 0.00292462 0)
(1.00357 0.00141206 0)
(1.00241 0.00199727 0)
(0.999946 0.00437138 0)
(1.00068 0.0051245 0)
(1.00282 0.00481234 0)
(1.0034 0.00554631 0)
(1.00239 0.00709384 0)
(1.00226 0.00785812 0)
(0.999979 6.29475e-05 0)
(0.999867 0.00131505 0)
(1.00164 0.0012562 0)
(1.00265 0.000294892 0)
(1.00156 -0.000435948 0)
(1.00087 0.000116747 0)
(1.0002 0.00154285 0)
(1.00049 0.00379043 0)
(1.00331 0.0034324 0)
(1.00441 0.00140659 0)
(1.00179 0.00226548 0)
(1.00156 0.00309503 0)
(1.0034 0.00180077 0)
(1.00271 0.00202808 0)
(1.00033 0.00421611 0)
(1.00071 0.00524719 0)
(1.00281 0.00495199 0)
(1.00372 0.00531551 0)
(1.0028 0.00669021 0)
(1.00237 0.00762655 0)
(0.999986 1.08885e-05 0)
(0.999844 0.00126602 0)
(1.00148 0.00122625 0)
(1.00247 0.000213064 0)
(1.00147 -0.000230166 0)
(1.00091 0.000282356 0)
(1.00038 0.00146092 0)
(1.00057 0.00359688 0)
(1.00304 0.00343126 0)
(1.00423 0.00152516 0)
(1.0019 0.0021752 0)
(1.00146 0.00318826 0)
(1.00321 0.00215063 0)
(1.00295 0.00210058 0)
(1.00075 0.00403262 0)
(1.0008 0.0052762 0)
(1.00276 0.00509577 0)
(1.00397 0.0051633 0)
(1.00323 0.00628667 0)
(1.00257 0.00732364 0)
(0.999992 -3.5746e-05 0)
(0.999825 0.00118923 0)
(1.00133 0.00121463 0)
(1.0023 0.000191499 0)
(1.00139 -5.45039e-05 0)
(1.00094 0.000466059 0)
(1.00054 0.00140286 0)
(1.00065 0.00333918 0)
(1.00278 0.00337935 0)
(1.00404 0.00165475 0)
(1.00202 0.00210447 0)
(1.00141 0.00322615 0)
(1.00302 0.00245581 0)
(1.00313 0.0022069 0)
(1.00117 0.00384616 0)
(1.00094 0.00521878 0)
(1.00269 0.00521224 0)
(1.00411 0.00508354 0)
(1.00363 0.00591217 0)
(1.00285 0.00696287 0)
(0.999996 -7.06481e-05 0)
(0.999813 0.00109229 0)
(1.00118 0.0012163 0)
(1.00214 0.000168825 0)
(1.00133 8.49779e-05 0)
(1.00096 0.000638209 0)
(1.00068 0.00136557 0)
(1.00074 0.00308235 0)
(1.00255 0.00332094 0)
(1.00385 0.00180381 0)
(1.00213 0.00206302 0)
(1.00141 0.00322452 0)
(1.00283 0.00272174 0)
(1.00326 0.00235342 0)
(1.00159 0.00369518 0)
(1.00115 0.00511335 0)
(1.00262 0.00529838 0)
(1.00418 0.00507686 0)
(1.00398 0.00561616 0)
(1.00318 0.00658725 0)
(1 -9.26564e-05 0)
(0.999808 0.000972028 0)
(1.00104 0.0012197 0)
(1.00198 0.000175993 0)
(1.00128 0.000173951 0)
(1.00097 0.00079498 0)
(1.00079 0.00137856 0)
(1.00084 0.00286822 0)
(1.00236 0.00323796 0)
(1.00365 0.00194495 0)
(1.00223 0.00205428 0)
(1.00144 0.00320579 0)
(1.00267 0.00295937 0)
(1.00334 0.00253662 0)
(1.00198 0.00358664 0)
(1.0014 0.00497173 0)
(1.00258 0.00533005 0)
(1.00417 0.00509778 0)
(1.00426 0.00539279 0)
(1.00352 0.00620606 0)
(1 -0.000106485 0)
(0.999813 0.000845866 0)
(1.0009 0.00121938 0)
(1.00183 0.000196448 0)
(1.00125 0.000234017 0)
(1.00099 0.000945931 0)
(1.00088 0.00143717 0)
(1.00093 0.00268478 0)
(1.0022 0.00313231 0)
(1.00345 0.00207623 0)
(1.00233 0.00208731 0)
(1.00152 0.00318243 0)
(1.00252 0.00314597 0)
(1.00337 0.00271449 0)
(1.00233 0.00349382 0)
(1.00169 0.0047854 0)
(1.00257 0.00529052 0)
(1.00413 0.00511113 0)
(1.00445 0.00523307 0)
(1.00386 0.00585894 0)
(1 -0.000111477 0)
(0.999826 0.000716358 0)
(1.00077 0.0011998 0)
(1.00168 0.000252647 0)
(1.00123 0.000286407 0)
(1.00101 0.00106423 0)
(1.00095 0.00150964 0)
(1.00101 0.00254074 0)
(1.00207 0.00303029 0)
(1.00327 0.00219006 0)
(1.0024 0.00212541 0)
(1.00161 0.00313607 0)
(1.00241 0.00327537 0)
(1.00336 0.00287581 0)
(1.00263 0.00342826 0)
(1.002 0.00459116 0)
(1.00262 0.00520488 0)
(1.00407 0.00511716 0)
(1.00456 0.00513131 0)
(1.00415 0.0055824 0)
(1 -0.000110689 0)
(0.999845 0.00059087 0)
(1.00067 0.00116205 0)
(1.00154 0.00034437 0)
(1.00122 0.000328929 0)
(1.00104 0.00113664 0)
(1.00101 0.00158599 0)
(1.00109 0.0024425 0)
(1.00197 0.00293195 0)
(1.0031 0.00227924 0)
(1.00247 0.00216338 0)
(1.00173 0.00307778 0)
(1.00233 0.00337165 0)
(1.00333 0.00303708 0)
(1.00289 0.00340054 0)
(1.00232 0.00440819 0)
(1.00271 0.00507884 0)
(1.00401 0.00509175 0)
(1.00462 0.00504909 0)
(1.00439 0.00536103 0)
(1 -0.000106024 0)
(0.999871 0.000484347 0)
(1.00058 0.00110443 0)
(1.00141 0.000456309 0)
(1.00122 0.000379051 0)
(1.00109 0.00116292 0)
(1.00107 0.00164602 0)
(1.00116 0.00237209 0)
(1.00188 0.00283394 0)
(1.00295 0.00234868 0)
(1.00252 0.00221267 0)
(1.00186 0.00301963 0)
(1.00229 0.00342979 0)
(1.00328 0.0031874 0)
(1.00309 0.00340106 0)
(1.00263 0.00423865 0)
(1.00284 0.00492177 0)
(1.00397 0.00502993 0)
(1.00465 0.00496989 0)
(1.00456 0.00518141 0)
(1 -9.97354e-05 0)
(0.999898 0.000402973 0)
(1.00051 0.00104156 0)
(1.00128 0.000571076 0)
(1.00121 0.000444421 0)
(1.00114 0.00115037 0)
(1.00112 0.00167551 0)
(1.00122 0.0023237 0)
(1.00182 0.00275696 0)
(1.00281 0.00240738 0)
(1.00256 0.00226754 0)
(1.002 0.00296251 0)
(1.00228 0.00344123 0)
(1.00323 0.0033041 0)
(1.00324 0.00341813 0)
(1.00292 0.00408673 0)
(1.00301 0.00474633 0)
(1.00395 0.00493902 0)
(1.00465 0.0048872 0)
(1.00469 0.00502891 0)
(1 -9.24929e-05 0)
(0.999927 0.00034475 0)
(1.00046 0.000978184 0)
(1.00117 0.000672962 0)
(1.00119 0.000526689 0)
(1.0012 0.00112909 0)
(1.00119 0.00167373 0)
(1.00128 0.00228665 0)
(1.00176 0.00270363 0)
(1.00269 0.00245826 0)
(1.00259 0.00231748 0)
(1.00215 0.00290635 0)
(1.00231 0.00342387 0)
(1.00318 0.00338768 0)
(1.00335 0.00344856 0)
(1.00317 0.0039651 0)
(1.00319 0.00456506 0)
(1.00397 0.0048248 0)
(1.00463 0.00479602 0)
(1.00477 0.00488863 0)
(1 -8.49849e-05 0)
(0.999955 0.000308143 0)
(1.00042 0.000908083 0)
(1.00107 0.000754121 0)
(1.00117 0.000622279 0)
(1.00125 0.00111818 0)
(1.00125 0.00164808 0)
(1.00134 0.00224686 0)
(1.00173 0.00266079 0)
(1.00258 0.00250627 0)
(1.0026 0.00236951 0)
(1.00229 0.00284993 0)
(1.00236 0.00338383 0)
(1.00315 0.00344183 0)
(1.00343 0.00347908 0)
(1.00339 0.00387335 0)
(1.00339 0.00438713 0)
(1.00401 0.00468546 0)
(1.00462 0.00469222 0)
(1.00483 0.00474835 0)
(1 -7.99297e-05 0)
(0.99998 0.000288596 0)
(1.0004 0.000837736 0)
(1.00099 0.000813676 0)
(1.00114 0.000724138 0)
(1.00129 0.00112162 0)
(1.00133 0.00161231 0)
(1.00141 0.00219864 0)
(1.0017 0.00262023 0)
(1.00248 0.00255041 0)
(1.0026 0.00242876 0)
(1.00242 0.00280214 0)
(1.00244 0.00331533 0)
(1.00313 0.00345988 0)
(1.00348 0.00349472 0)
(1.00357 0.0037953 0)
(1.00357 0.00422204 0)
(1.00407 0.00452575 0)
(1.00461 0.00457732 0)
(1.00486 0.00460762 0)
(1 -7.57499e-05 0)
(1 0.000279651 0)
(1.00039 0.000772071 0)
(1.00092 0.000849039 0)
(1.00111 0.000824236 0)
(1.00133 0.00114693 0)
(1.00139 0.00157811 0)
(1.00148 0.00213769 0)
(1.0017 0.00257471 0)
(1.00239 0.00258448 0)
(1.00259 0.00248694 0)
(1.00254 0.00277471 0)
(1.00254 0.00323331 0)
(1.00314 0.00343922 0)
(1.00352 0.00349294 0)
(1.00371 0.00372182 0)
(1.00374 0.00407588 0)
(1.00415 0.0043629 0)
(1.0046 0.00445386 0)
(1.00489 0.00447232 0)
(1 -7.23506e-05 0)
(1.00002 0.000277903 0)
(1.00038 0.000718933 0)
(1.00087 0.000863496 0)
(1.00108 0.000910574 0)
(1.00135 0.00119168 0)
(1.00145 0.00155513 0)
(1.00156 0.00207094 0)
(1.00171 0.00252134 0)
(1.00232 0.00260691 0)
(1.00257 0.00253768 0)
(1.00263 0.0027571 0)
(1.00264 0.00315476 0)
(1.00317 0.00338875 0)
(1.00356 0.00347078 0)
(1.00382 0.00365134 0)
(1.00389 0.00394036 0)
(1.00425 0.00420299 0)
(1.00461 0.00431747 0)
(1.00489 0.0043395 0)
(1 -6.88006e-05 0)
(1.00003 0.000280425 0)
(1.00037 0.000680358 0)
(1.00083 0.000865902 0)
(1.00106 0.000979132 0)
(1.00135 0.00124293 0)
(1.0015 0.00154771 0)
(1.00164 0.00200705 0)
(1.00174 0.00245518 0)
(1.00227 0.00261353 0)
(1.00254 0.00258533 0)
(1.0027 0.00274459 0)
(1.00274 0.0030827 0)
(1.00321 0.00332539 0)
(1.00359 0.00342683 0)
(1.00391 0.0035796 0)
(1.00402 0.0038085 0)
(1.00434 0.00404037 0)
(1.00463 0.00416738 0)
(1.00489 0.0042009 0)
(1 -6.45854e-05 0)
(1.00004 0.000283456 0)
(1.00036 0.000655601 0)
(1.0008 0.000863212 0)
(1.00104 0.00102808 0)
(1.00136 0.0012907 0)
(1.00153 0.00155677 0)
(1.0017 0.00195619 0)
(1.00178 0.00238135 0)
(1.00224 0.00259754 0)
(1.00251 0.00262173 0)
(1.00275 0.00274217 0)
(1.00283 0.00301191 0)
(1.00326 0.00325051 0)
(1.00362 0.00336404 0)
(1.00398 0.00349928 0)
(1.00413 0.00368642 0)
(1.00443 0.00388064 0)
(1.00466 0.00401312 0)
(1.00489 0.00405728 0)
(1 -5.91968e-05 0)
(1.00005 0.000284675 0)
(1.00035 0.000643158 0)
(1.00078 0.000860524 0)
(1.00103 0.00105802 0)
(1.00136 0.00133145 0)
(1.00155 0.0015762 0)
(1.00176 0.00192119 0)
(1.00182 0.00230976 0)
(1.00223 0.0025609 0)
(1.00249 0.00263343 0)
(1.00277 0.0027454 0)
(1.0029 0.00295248 0)
(1.00331 0.00316608 0)
(1.00365 0.0032883 0)
(1.00404 0.00340634 0)
(1.00421 0.00356711 0)
(1.00451 0.00372778 0)
(1.00469 0.00385382 0)
(1.00489 0.00390944 0)
(1 -5.22386e-05 0)
(1.00006 0.00028462 0)
(1.00034 0.00063836 0)
(1.00077 0.000861929 0)
(1.00102 0.00107491 0)
(1.00136 0.00136105 0)
(1.00156 0.00159892 0)
(1.0018 0.00190012 0)
(1.00187 0.00224747 0)
(1.00223 0.00251341 0)
(1.00247 0.00262155 0)
(1.00279 0.00273538 0)
(1.00294 0.00290651 0)
(1.00335 0.00308377 0)
(1.00367 0.00320379 0)
(1.00408 0.0033066 0)
(1.00428 0.00343929 0)
(1.00457 0.00357797 0)
(1.00473 0.00368725 0)
(1.00489 0.00375371 0)
(1 -4.4571e-05 0)
(1.00006 0.000284985 0)
(1.00034 0.000636566 0)
(1.00075 0.000868766 0)
(1.00102 0.00108596 0)