/*--------------------------------*- C++ -*----------------------------------*\
| =========                 |                                                 |
| \\      /  F ield         | OpenFOAM: The Open Source CFD Toolbox           |
|  \\    /   O peration     | Version:  3.0.1                                 |
|   \\  /    A nd           | Web:      www.OpenFOAM.org                      |
|    \\/     M anipulation  |                                                 |
\*---------------------------------------------------------------------------*/
FoamFile
{
    version     2.0;
    format      ascii;
    class       volScalarField;
    location    "0.8";
    object      p;
}
// * * * * * * * * * * * * * * * * * * * * * * * * * * * * * * * * * * * * * //

dimensions      [0 2 -2 0 0 0 0];

internalField   nonuniform List<scalar> 
9600
(
8.6059e-12
0.000764393
0.000888866
0.000628082
-0.0011191
-0.000363072
0.00101112
0.000624189
0.0008424
0.000942134
0.00137968
0.00051635
-0.000216658
0.00073555
0.000297032
0.00178671
0.00146431
0.00326183
0.0042021
0.00742677
3.84873e-07
0.00076169
0.000892686
0.000617243
-0.00108814
-0.000352656
0.00100445
0.000620457
0.000847341
0.000928424
0.0013848
0.000505678
-0.000206428
0.000733264
0.000302491
0.00170662
0.00151611
0.00316921
0.00424501
0.00709725
6.18818e-08
0.000757715
0.000898006
0.000607723
-0.00106746
-0.000340887
0.000996128
0.000615658
0.000850027
0.000911191
0.00138657
0.000496153
-0.000189094
0.000727368
0.000313966
0.00167136
0.00155008
0.00308657
0.0042651
0.00671007
-1.36514e-06
0.000752337
0.000904599
0.000599073
-0.00104572
-0.000329207
0.000987355
0.000607897
0.000849126
0.000892102
0.0013826
0.000491036
-0.000167992
0.000719182
0.000330407
0.00162988
0.00158058
0.00300505
0.00425327
0.00634492
-3.95418e-06
0.000745252
0.000912868
0.000591035
-0.001023
-0.000317461
0.000977756
0.000597472
0.000846636
0.000871407
0.00137616
0.000489356
-0.000143905
0.000709162
0.000348765
0.00158403
0.00161005
0.00292016
0.00421406
0.00600464
-7.66719e-06
0.000736626
0.000922962
0.00058371
-0.000999586
-0.000305752
0.000967471
0.000585715
0.000843434
0.000849754
0.00136902
0.000489046
-0.000117921
0.000697936
0.000368165
0.00153602
0.00163738
0.00283234
0.00415156
0.00568602
-1.23285e-05
0.000726929
0.000934655
0.000576865
-0.000975642
-0.000293975
0.000956812
0.000573486
0.000839663
0.000827389
0.00136168
0.00048824
-9.08501e-05
0.000686213
0.000387846
0.00148828
0.00166042
0.00274368
0.00406701
0.00538397
-1.76529e-05
0.000716642
0.000947517
0.000570147
-0.000951184
-0.000281903
0.000945883
0.000561266
0.00083534
0.000804195
0.00135452
0.000485911
-6.30829e-05
0.00067439
0.000406854
0.00144272
0.00167661
0.00265681
0.00396117
0.00509455
-2.33412e-05
0.000706089
0.000961124
0.000563299
-0.000926138
-0.000269389
0.000934661
0.000549337
0.000830461
0.000780065
0.00134781
0.000481882
-3.50739e-05
0.000662805
0.000424358
0.00140017
0.00168411
0.00257283
0.00383555
0.00481398
-2.91683e-05
0.000695411
0.000975183
0.000556192
-0.000900442
-0.000256381
0.000923125
0.000537822
0.000825038
0.000755013
0.00134175
0.000476442
-7.50395e-06
0.000652109
0.000439368
0.00136087
0.00168188
0.00249267
0.00369205
0.00453853
-3.50164e-05
0.000684609
0.000989546
0.000548796
-0.000874062
-0.000242864
0.000911278
0.000526579
0.000819087
0.000729175
0.0013363
0.000470036
1.89604e-05
0.000643128
0.00045063
0.00132508
0.00166952
0.00241501
0.00353343
0.00426521
-4.08516e-05
0.000673617
0.00100417
0.000541137
-0.000846983
-0.000228837
0.000899134
0.000515473
0.000812577
0.000702775
0.00133124
0.000463201
4.36333e-05
0.000636551
0.000457175
0.00129302
0.00164617
0.00233727
0.00336394
0.00399176
-4.66771e-05
0.000662351
0.00101907
0.000533268
-0.000819206
-0.000214311
0.000886704
0.000504381
0.00080543
0.000676065
0.00132615
0.000456555
6.56837e-05
0.000632956
0.000458391
0.00126416
0.00161046
0.00225643
0.00318861
0.00371683
-5.25006e-05
0.000650729
0.00103424
0.000525252
-0.000790747
-0.000199298
0.000873975
0.000493239
0.000797534
0.000649325
0.00132056
0.000450708
8.43054e-05
0.000632909
0.000453728
0.0012373
0.00155481
0.00216874
0.00301189
0.00344048
-5.83197e-05
0.000638674
0.00104971
0.000517151
-0.000761631
-0.000183801
0.000860907
0.000482033
0.000788746
0.000622863
0.00131393
0.000446225
9.87662e-05
0.000636756
0.000443064
0.00121123
0.00150632
0.00206969
0.00283616
0.0031642
-6.41171e-05
0.000626106
0.00106545
0.000509028
-0.000731897
-0.000167813
0.000847456
0.000470788
0.000778888
0.000597005
0.00130572
0.000443694
0.000108391
0.000644493
0.000426891
0.00118423
0.00145412
0.00195605
0.00266126
0.00289076
-6.98559e-05
0.000612943
0.00108146
0.000500945
-0.000701585
-0.000151311
0.000833569
0.00045958
0.00076774
0.000572109
0.00129532
0.000443651
0.000112692
0.000655763
0.000406033
0.00115365
0.00140062
0.00182671
0.00248588
0.00262379
-7.54773e-05
0.000599098
0.00109769
0.000492961
-0.000670745
-0.000134247
0.000819144
0.000448534
0.000755069
0.000548559
0.00128222
0.00044646
0.000111452
0.000669723
0.000381952
0.00111622
0.00134781
0.00168235
0.00230787
0.00236688
-8.09003e-05
0.000584477
0.00111411
0.000485143
-0.000639445
-0.000116545
0.000804038
0.000437833
0.000740604
0.000526709
0.0012661
0.00045228
0.000104775
0.000685003
0.000356842
0.00106853
0.00129674
0.00152662
0.00212448
0.00212295
-8.60245e-05
0.000568973
0.00113063
0.000477578
-0.00060778
-9.80986e-05
0.000788088
0.000427696
0.000724052
0.000506773
0.0012467
0.000461064
9.31802e-05
0.000699733
0.00033292
0.00100854
0.00124598
0.0013641
0.00193313
0.00189399
-9.07312e-05
0.000552473
0.0011472
0.00047037
-0.000575868
-7.87598e-05
0.000771107
0.000418352
0.000705188
0.000488871
0.001224
0.000472468
7.75552e-05
0.000711712
0.000311475
0.000935391
0.00119316
0.00119908
0.00173209
0.00168081
-9.4884e-05
0.00053485
0.00116372
0.000463634
-0.000543851
-5.83662e-05
0.00075289
0.000410003
0.000683832
0.000473081
0.00119819
0.00048574
5.90848e-05
0.000718895
0.000293044
0.000849631
0.00113578
0.00103492
0.00152034
0.00148254
-9.83288e-05
0.000515961
0.00118009
0.000457498
-0.000511911
-3.67214e-05
0.000733206
0.000403049
0.00065992
0.000459315
0.00116971
0.000499832
3.89185e-05
0.000719724
0.000277923
0.000752528
0.00107171
0.000874374
0.00129764
0.00129661
-0.000100941
0.00049566
0.00119615
0.000452139
-0.000480287
-1.35122e-05
0.000711815
0.000397514
0.000633621
0.000447178
0.00113938
0.000513514
1.77362e-05
0.000713017
0.000265694
0.000645622
0.000998782
0.000720468
0.00106485
0.00111875
-0.000102398
0.000473815
0.00121174
0.000447775
-0.000449278
1.16182e-05
0.000688516
0.000393335
0.00060538
0.000436082
0.00110831
0.000525682
-4.19904e-06
0.000698167
0.000255089
0.000530206
0.000915628
0.000576316
0.000824014
0.000942917
-0.000102562
0.00045028
0.00122665
0.000444668
-0.000419239
3.89775e-05
0.000663232
0.000390261
0.000575884
0.000426202
0.0010775
0.000535898
-2.70345e-05
0.000674891
0.00024484
0.000407295
0.000821027
0.000444589
0.0005786
0.000761793
-0.000101224
0.000424914
0.00124062
0.000443156
-0.000390581
6.88631e-05
0.000636015
0.000387754
0.000546057
0.000412773
0.00104762
0.000544092
-5.16098e-05
0.0006428
0.000234317
0.000278419
0.00071329
0.000327196
0.000334141
0.000567767
-9.81598e-05
0.000397617
0.00125329
0.000443626
-0.000363725
0.000101562
0.000607081
0.000385084
0.000517048
0.000396056
0.00101889
0.00055045
-7.90059e-05
0.000601338
0.00022309
0.000145766
0.000590597
0.000224531
9.86241e-05
0.00035473
-9.31283e-05
0.000368346
0.00126421
0.000446455
-0.000339093
0.000137209
0.000576951
0.00038137
0.000490161
0.000375917
0.000990684
0.000555703
-0.000110209
0.000549466
0.000211108
1.24442e-05
0.000451695
0.00013405
-0.000119035
0.000120624
-8.58826e-05
0.000337098
0.00127284
0.00045209
-0.000317087
0.000175831
0.000546381
0.000375357
0.000466735
0.000352194
0.000961572
0.000560997
-0.00014576
0.00048565
0.00019834
-0.000117458
0.000295884
4.991e-05
-0.000310799
-0.000130167
-7.62284e-05
0.000304002
0.00127849
0.000461026
-0.00029801
0.000217384
0.000514935
0.000365269
0.000447697
0.00032524
0.000929492
0.000567453
-0.000185163
0.000408508
0.00018409
-0.000239635
0.000123652
-3.5395e-05
-0.000470912
-0.000386288
-6.39908e-05
0.000269313
0.00128027
0.000473702
-0.000281947
0.000261533
0.000486828
0.000349486
0.000433368
0.000296075
0.000892056
0.000575202
-0.000227086
0.000317142
0.000167292
-0.000349897
-6.28126e-05
-0.000130233
-0.000598666
-0.000631725
-4.89941e-05
0.000233355
0.00127723
0.000490358
-0.000268683
0.000307508
0.000462681
0.000326835
0.000423432
0.000266203
0.000846901
0.000583194
-0.000269106
0.000211133
0.000145783
-0.000445146
-0.000258367
-0.00024253
-0.000700644
-0.000851579
-3.11159e-05
0.000196628
0.00126833
0.000511114
-0.000257794
0.000354151
0.000444409
0.000296757
0.000416635
0.000237603
0.000792059
0.000590174
-0.000307614
9.14014e-05
0.000118654
-0.000523013
-0.000456007
-0.000377049
-0.000787985
-0.00103574
-1.03147e-05
0.000159828
0.00125246
0.000535872
-0.000248566
0.000399969
0.000433869
0.000259248
0.000410855
0.000212585
0.000726472
0.00059581
-0.000338968
-3.97444e-05
7.61163e-05
-0.000581617
-0.000648609
-0.00053362
-0.000871856
-0.00118267
1.33554e-05
0.000123729
0.00122878
0.0005642
-0.000240009
0.000443323
0.000432583
0.000214765
0.000403353
0.000193054
0.000650129
0.000590824
-0.000360617
-0.000178321
1.54686e-05
-0.000624005
-0.000829111
-0.000709016
-0.000961702
-0.00129867
3.97808e-05
8.9059e-05
0.00119652
0.000595518
-0.000230912
0.00048238
0.000441402
0.000164754
0.000391158
0.000180446
0.000564351
0.000571629
-0.00037156
-0.000318389
-6.65344e-05
-0.000655324
-0.00099123
-0.000898726
-0.00106436
-0.00139253
6.8757e-05
5.65488e-05
0.00115524
0.000628898
-0.000219902
0.000515604
0.000460409
0.000111419
0.000370928
0.000175708
0.000472762
0.000535867
-0.000373134
-0.000453535
-0.000171074
-0.000682215
-0.00112901
-0.00109573
-0.00118434
-0.00147447
9.99183e-05
2.70141e-05
0.00110495
0.000662968
-0.000205755
0.000542038
0.000488828
5.72208e-05
0.000339359
0.000178153
0.000380785
0.000481906
-0.000369061
-0.000578323
-0.000296492
-0.00071246
-0.00123887
-0.0012904
-0.00132358
-0.00155497
0.000132786
1.34749e-06
0.00104606
0.000696146
-0.000187481
0.000560753
0.000524584
6.4897e-06
0.000294706
0.00018542
0.000293691
0.000410192
-0.000364716
-0.000688903
-0.000438346
-0.000754663
-0.00132265
-0.00147274
-0.00147985
-0.00164277
0.000166651
-1.94568e-05
0.000979506
0.000726456
-0.000164358
0.000571226
0.000566
-3.73114e-05
0.000236522
0.000193513
0.000215313
0.000323287
-0.000365545
-0.000783419
-0.000590398
-0.000815641
-0.00138757
-0.00163336
-0.00164526
-0.00174311
0.000200523
-3.43665e-05
0.000906886
0.000751574
-0.000136101
0.000573586
0.00061026
-7.20934e-05
0.000165689
0.000197632
0.000148872
0.000225388
-0.00037617
-0.000861891
-0.000746533
-0.00089854
-0.0014421
-0.00176759
-0.00180929
-0.00185563
0.000233383
-4.24986e-05
0.000830596
0.00076939
-0.000103028
0.000568389
0.000654166
-9.5724e-05
8.47193e-05
0.000193315
9.48686e-05
0.000120746
-0.000398982
-0.000924653
-0.00090087
-0.00100295
-0.001495
-0.00187717
-0.00196301
-0.00197505
0.000264241
-4.31253e-05
0.000753542
0.000777967
-6.61217e-05
0.000556947
0.000694665
-0.000107388
-2.70376e-06
0.000177612
5.20748e-05
1.36847e-05
-0.000436177
-0.000974011
-0.00104621
-0.00112607
-0.00155566
-0.00196729
-0.00210045
-0.00209526
0.000292309
-3.58064e-05
0.000678756
0.00077558
-2.69797e-05
0.000541161
0.000729258
-0.000107974
-9.24264e-05
0.000149393
1.77426e-05
-9.20075e-05
-0.000489086
-0.00101459
-0.00117403
-0.001261
-0.00163223
-0.00204483
-0.0022194
-0.00221175
0.000317088
-2.07517e-05
0.000607798
0.000761208
1.20719e-05
0.000523264
0.000756356
-9.96004e-05
-0.000181193
0.000109549
-9.72625e-06
-0.000193447
-0.000558283
-0.00105162
-0.00127942
-0.00139881
-0.00172715
-0.00212005
-0.00232125
-0.00231983
0.00033829
1.02432e-06
0.000543195
0.000735042
4.8081e-05
0.000505066
0.000775361
-8.65155e-05
-0.000267688
5.97394e-05
-3.03313e-05
-0.000288074
-0.000643746
-0.00109149
-0.00136336
-0.00152863
-0.00183528
-0.00220338
-0.0024118
-0.00241621
0.000355948
2.77426e-05
0.000487137
0.000698804
7.73265e-05
0.000486937
0.000787496
-7.04163e-05
-0.000351637
6.48732e-07
-4.41392e-05
-0.000372483
-0.000744063
-0.00114229
-0.00143061
-0.00164
-0.00194717
-0.00229899
-0.00250105
-0.00250176
0.000370307
5.74131e-05
0.000441041
0.000655478
9.61715e-05
0.000468491
0.000795208
-5.21807e-05
-0.00043425
-6.85221e-05
-5.21417e-05
-0.000439441
-0.000854152
-0.00121271
-0.00148731
-0.00172838
-0.00205235
-0.00240164
-0.00259753
-0.0025831
0.000381725
8.82111e-05
0.000405395
0.000608608
0.000102568
0.000447377
0.00080058
-3.09063e-05
-0.00051709
-0.00015114
-5.65014e-05
-0.000481982
-0.000966711
-0.00130693
-0.00154508
-0.00179664
-0.00213996
-0.00250113
-0.00270253
-0.0026704
0.000390736
0.000118569
0.000379432
0.00056196
9.67024e-05
0.000418699
0.000803707
-2.47899e-06
-0.00059923
-0.000251896
-6.23845e-05
-0.000497066
-0.00106864
-0.00142166
-0.0016182
-0.00185132
-0.0022045
-0.00258714
-0.00280747
-0.00276834
0.00039794
0.000147233
0.000361514
0.000519024
8.0167e-05
0.00037773
0.000803099
3.72484e-05
-0.000677999
-0.000374967
-7.92675e-05
-0.000485311
-0.00114438
-0.00154907
-0.00171594
-0.00190392
-0.00224918
-0.00265208
-0.00290238
-0.00287164
0.000403899
0.000173298
0.000349545
0.000482261
5.6352e-05
0.000321797
0.000793387
8.96828e-05
-0.000743612
-0.000520527
-0.000121323
-0.000451177
-0.00118207
-0.00167499
-0.00183786
-0.00196935
-0.00228041
-0.00269353
-0.00297962
-0.00297017
0.00040934
0.000196238
0.000340829
0.000452787
2.98747e-05
0.000251014
0.000766742
0.000153444
-0.000782443
-0.000684519
-0.000202903
-0.000408358
-0.00117699
-0.0017786
-0.0019754
-0.00205888
-0.00230994
-0.00271392
-0.00303461
-0.0030568
0.000414804
0.000215932
0.000332716
0.000430858
5.23698e-06
0.000166138
0.000717093
0.000221131
-0.000786458
-0.000852181
-0.000330604
-0.000380828
-0.00113257
-0.00184158
-0.00211456
-0.00217369
-0.00235363
-0.00271988
-0.00306517
-0.00312828
0.000420493
0.000232595
0.000322932
0.000415286
-1.34238e-05
7.12257e-05
0.000640756
0.0002813
-0.00075402
-0.000999787
-0.000499556
-0.000392907
-0.00106102
-0.00185478
-0.00223278
-0.00230268
-0.00242149
-0.00272525
-0.00307183
-0.00317996
0.000426291
0.000246878
0.000309834
0.000403224
-2.25302e-05
-2.73403e-05
0.000536334
0.000322517
-0.000688341
-0.00110914
-0.000697053
-0.000458996
-0.000989486
-0.00182169
-0.0023121
-0.00243106
-0.00251039
-0.00274488
-0.0030622
-0.00320572
0.000431525
0.000260056
0.000292977
0.000390315
-2.02992e-05
-0.000120769
0.000405078
0.000333822
-0.000600352
-0.00117135
-0.000896902
-0.000578001
-0.000945389
-0.00175173
-0.00234445
-0.00253998
-0.00260782
-0.00278341
-0.0030506
-0.00320511
0.000435348
0.000272805
0.0002731
0.000371703
-7.55257e-06
-0.000200516
0.000252339
0.000306809
-0.000506287
-0.0011851
-0.00107381
-0.000739847
-0.000948295
-0.00167006
-0.00233124
-0.00261726
-0.00270091
-0.00283321
-0.00304778
-0.00318698
0.000437066
0.000285005
0.000251982
0.000344442
1.02318e-05
-0.000259947
9.09396e-05
0.000239986
-0.000425142
-0.00115484
-0.00121007
-0.000921928
-0.00100199
-0.00160327
-0.00228098
-0.00265695
-0.00278006
-0.00288465
-0.00305358
-0.0031637
0.000436011
0.000296159
0.000231318
0.000308251
2.5039e-05
-0.000297526
-6.4e-05
0.000137011
-0.000371757
-0.0010957
-0.0012987
-0.00109605
-0.00109651
-0.00157032
-0.00221545
-0.00265741
-0.00283794
-0.00293144
-0.00306081
-0.00314136
0.000431783
0.000306007
0.000212278
0.000264084
3.05042e-05
-0.000315597
-0.000200271
6.58848e-06
-0.000355008
-0.00102676
-0.0013423
-0.00124427
-0.00121486
-0.00157388
-0.00215649
-0.00262736
-0.00286737
-0.00297017
-0.00306466
-0.00311764
0.000424122
0.000312023
0.000195284
0.00021427
2.34487e-05
-0.00032184
-0.000312406
-0.000136075
-0.00037667
-0.000964611
-0.00134756
-0.00135682
-0.00133548
-0.00160565
-0.00211471
-0.00258312
-0.00286741
-0.00299615
-0.00306521
-0.00308766
0.000412817
0.000313793
0.000180207
0.000162337
3.15409e-06
-0.000324814
-0.000400728
-0.000275298
-0.000431226
-0.000923052
-0.00132915
-0.00143171
-0.00144343
-0.00165425
-0.00208906
-0.00253595
-0.00284362
-0.00300321
-0.00306226
-0.00305112
0.000397842
0.0003104
0.000165989
0.000111331
-2.91739e-05
-0.000331169
-0.000468322
-0.000402313
-0.000508449
-0.000907972
-0.00130433
-0.00147366
-0.00152803
-0.00170633
-0.00207577
-0.00248913
-0.00280186
-0.00298556
-0.00305012
-0.00301033
0.000379324
0.000301272
0.00015089
6.28534e-05
-7.10742e-05
-0.000345356
-0.000520684
-0.00051396
-0.000596967
-0.000917219
-0.00128414
-0.00149176
-0.00158579
-0.00174935
-0.00206689
-0.00244276
-0.0027468
-0.00294104
-0.00301743
-0.00296248
0.000357378
0.000286258
0.000133228
1.69924e-05
-0.000119086
-0.000369145
-0.000565569
-0.000610547
-0.000688541
-0.000946422
-0.00127388
-0.00149755
-0.00162039
-0.00177564
-0.00205186
-0.00239165
-0.00268025
-0.00287212
-0.00295538
-0.00289624
0.000331901
0.000265638
0.000111898
-2.71405e-05
-0.0001706
-0.000401958
-0.000609111
-0.000695605
-0.000779018
-0.000990891
-0.00127564
-0.001498
-0.00163689
-0.00178451
-0.00202244
-0.00232602
-0.00259682
-0.00277927
-0.00286062
-0.00280099
0.000302879
0.000239738
8.63467e-05
-7.04541e-05
-0.000224126
-0.000442928
-0.000654593
-0.000772999
-0.000867743
-0.00104776
-0.00129121
-0.00149851
-0.00164038
-0.00177665
-0.00197603
-0.00223659
-0.0024847
-0.00265421
-0.00272605
-0.00266361
0.000270478
0.000208904
5.61777e-05
-0.000114043
-0.000278661
-0.000490567
-0.000704468
-0.000847261
-0.000955448
-0.00111484
-0.00132365
-0.00150732
-0.00163742
-0.0017545
-0.00191126
-0.00211785
-0.00232837
-0.00247743
-0.00253254
-0.00246214
0.000234776
0.000173488
2.14351e-05
-0.000158639
-0.000334037
-0.000543567
-0.000759408
-0.000922029
-0.00104515
-0.00119181
-0.00137363
-0.00153509
-0.00164252
-0.00172647
-0.00183108
-0.00196685
-0.00211214
-0.00221676
-0.00224098
-0.00215423
0.000196185
0.000133959
-1.75992e-05
-0.000204982
-0.000390057
-0.00060116
-0.000820119
-0.000998804
-0.00113858
-0.00128117
-0.0014419
-0.00158532
-0.00167274
-0.00171367
-0.00175271
-0.0017976
-0.0018324
-0.00183398
-0.00177709
-0.00164455
0.000154781
9.12683e-05
-6.01444e-05
-0.000253543
-0.000446913
-0.000662528
-0.000886402
-0.00107972
-0.00123598
-0.00138234
-0.00153027
-0.00165917
-0.00173136
-0.00172872
-0.00169062
-0.00162897
-0.00151364
-0.00133382
-0.00108505
-0.000791605
0.000111086
4.60845e-05
-0.000105304
-0.000303946
-0.000505232
-0.000725951
-0.00095781
-0.00116645
-0.00133745
-0.00148969
-0.00163062
-0.00174616
-0.00180469
-0.00175893
-0.00161099
-0.00137377
-0.00102605
-0.000590418
-0.000156035
0.000171501
6.62621e-05
-6.77666e-07
-0.000152689
-0.000355674
-0.000564448
-0.00079051
-0.00103123
-0.00125761
-0.00144452
-0.00159842
-0.00172602
-0.00180571
-0.00180445
-0.0016777
-0.00139199
-0.000981739
-0.00050598
-1.9449e-05
0.000389727
0.000632673
2.13956e-05
-4.73524e-05
-0.000201109
-0.000408436
-0.000624107
-0.000855503
-0.00110171
-0.00134252
-0.00155004
-0.00170482
-0.00180724
-0.00182484
-0.00171515
-0.00146831
-0.00107283
-0.000582623
-9.81346e-05
0.000335046
0.000663629
0.000823705
-2.17908e-05
-9.26773e-05
-0.000248236
-0.00046082
-0.000683109
-0.000920819
-0.00116903
-0.00140663
-0.00161741
-0.00177676
-0.00187105
-0.00186216
-0.00167043
-0.00130392
-0.0008107
-0.000245468
0.000288621
0.000732501
0.00104089
0.00115953
-6.15179e-05
-0.000134686
-0.000291761
-0.000508839
-0.00073781
-0.000982417
-0.00123761
-0.00147066
-0.00164627
-0.00173371
-0.00172311
-0.00164679
-0.00148718
-0.0012174
-0.000861127
-0.000405968
9.3977e-05
0.000547331
0.000884009
0.00103193
-9.53402e-05
-0.000171542
-0.000330556
-0.000548723
-0.000782698
-0.00102407
-0.00127458
-0.00151541
-0.00171212
-0.0018404
-0.0018467
-0.00170772
-0.00143571
-0.00100993
-0.000490915
4.76748e-05
0.000553951
0.000965267
0.00123288
0.00129575
-0.000123168
-0.000204443
-0.000367155
-0.000589321
-0.000832169
-0.00108261
-0.0013351
-0.00157251
-0.00174809
-0.00183123
-0.00180032
-0.0016355
-0.00135276
-0.000953633
-0.00046463
4.11391e-05
0.000509687
0.000888639
0.00113178
0.00118408
0.0102956
0.0052473
-0.00219814
-0.00787692
-0.00932106
-0.0082583
-0.00691427
-0.00590997
-0.00515108
-0.00455191
-0.00414901
-0.00393574
-0.00382526
-0.00375069
-0.00363841
-0.00343947
-0.00322427
-0.00306864
-0.00297035
-0.00290577
-0.00283552
-0.00274952
-0.00270431
-0.00270967
-0.00269205
-0.00262877
-0.00255788
-0.00248023
-0.00239127
-0.00232846
-0.0022801
-0.00219113
-0.00207986
-0.00199105
-0.00191816
-0.00184033
-0.00176259
-0.00169359
-0.00162801
-0.00155646
-0.00147078
-0.0013773
-0.00128443
-0.00117889
-0.00106482
-0.000955856
-0.000848409
-0.000746184
-0.000650489
-0.000554035
-0.000445753
-0.00033249
-0.000222243
-0.00010975
9.5333e-06
0.000125636
0.000239916
0.000360228
0.000489164
0.000618308
0.000748275
0.000885552
0.00101931
0.00115542
0.00130306
0.00145662
0.00160538
0.00174665
0.00189264
0.00207644
0.00227843
0.00246665
0.00266198
0.00287768
0.00308244
0.00327753
0.00349524
0.00373239
0.00397543
0.00421996
0.00446978
0.0047206
0.00497101
0.00523044
0.00549418
0.00577177
0.00605306
0.00634628
0.00664907
0.00695435
0.00727674
0.00759383
0.00792761
0.0082632
0.00860453
0.00895632
0.0093143
0.00967634
0.00999498
0.0103485
0.00960927
0.00510599
-0.00210716
-0.00773273
-0.00923709
-0.00821961
-0.00689175
-0.00589493
-0.00513991
-0.00454258
-0.00414066
-0.00392819
-0.0038185
-0.00374485
-0.00363348
-0.00343508
-0.00322017
-0.00306482
-0.00296683
-0.00290257
-0.00283263
-0.00274681
-0.00270173
-0.00270735
-0.00268997
-0.00262682
-0.00255605
-0.00247855
-0.00238966
-0.00232694
-0.00227875
-0.0021899
-0.00207868
-0.00198994
-0.00191714
-0.00183938
-0.00176171
-0.00169276
-0.00162725
-0.00155576
-0.00147012
-0.00137667
-0.00128383
-0.00117833
-0.00106428
-0.000955332
-0.000847904
-0.000745692
-0.000650012
-0.000553579
-0.000445316
-0.000332064
-0.000221831
-0.000109357
9.91346e-06
0.000126005
0.000240268
0.000360559
0.000489479
0.000618609
0.000748558
0.000885821
0.00101957
0.00115566
0.00130328
0.00145683
0.00160558
0.00174684
0.00189281
0.00207658
0.00227857
0.00246678
0.0026621
0.00287778
0.00308254
0.00327762
0.00349532
0.00373246
0.00397549
0.00422001
0.00446983
0.00472065
0.00497105
0.00523047
0.00549421
0.0057718
0.00605309
0.0063463
0.00664909
0.00695437
0.00727675
0.00759384
0.00792762
0.0082632
0.00860454
0.00895633
0.00931431
0.00967635
0.00999499
0.0103485
0.00894225
0.00495158
-0.00192351
-0.00745862
-0.00908547
-0.00816145
-0.00686282
-0.00587477
-0.00512493
-0.00453141
-0.00413211
-0.0039211
-0.00381199
-0.00373878
-0.00362811
-0.00343047
-0.00321617
-0.00306126
-0.00296354
-0.00289954
-0.00282989
-0.00274427
-0.00269939
-0.00270529
-0.00268811
-0.00262505
-0.0025544
-0.00247703
-0.00238821
-0.00232558
-0.00227754
-0.00218878
-0.00207759
-0.00198892
-0.00191621
-0.00183852
-0.0017609
-0.00169203
-0.00162657
-0.00155513
-0.00146953
-0.00137611
-0.00128331
-0.00117783
-0.00106379
-0.000954872
-0.000847462
-0.000745262
-0.000649601
-0.00055319
-0.000444939
-0.000331693
-0.000221474
-0.000109017
1.0245e-05
0.000126327
0.000240573
0.000360848
0.000489755
0.000618873
0.000748804
0.000886058
0.0010198
0.00115586
0.00130348
0.00145702
0.00160575
0.001747
0.00189294
0.0020767
0.00227869
0.00246689
0.0026622
0.00287788
0.00308263
0.0032777
0.00349538
0.00373252
0.00397555
0.00422006
0.00446988
0.00472069
0.00497108
0.0052305
0.00549424
0.00577182
0.00605311
0.00634631
0.00664911
0.00695438
0.00727676
0.00759386
0.00792763
0.00826321
0.00860454
0.00895634
0.00931431
0.00967637
0.00999502
0.0103485
0.00831036
0.00480001
-0.00168257
-0.00710242
-0.00886963
-0.00807336
-0.00681688
-0.00584204
-0.00510114
-0.00451508
-0.00412117
-0.00391303
-0.00380462
-0.0037312
-0.00362086
-0.00342441
-0.00321151
-0.00305742
-0.00295986
-0.0028959
-0.00282653
-0.00274129
-0.00269675
-0.00270292
-0.00268589
-0.00262295
-0.0025525
-0.00247533
-0.00238661
-0.00232406
-0.00227615
-0.00218747
-0.00207633
-0.00198776
-0.00191513
-0.0018375
-0.00175997
-0.00169119
-0.00162582
-0.00155445
-0.0014689
-0.00137551
-0.00128276
-0.00117731
-0.00106328
-0.000954387
-0.000847003
-0.000744823
-0.000649185
-0.000552796
-0.000444556
-0.000331313
-0.000221108
-0.000108669
1.05855e-05
0.000126658
0.000240888
0.000361149
0.000490047
0.000619151
0.000749062
0.000886307
0.00102003
0.00115608
0.00130368
0.00145721
0.00160594
0.00174717
0.00189309
0.00207683
0.00227883
0.00246702
0.00266231
0.00287799
0.00308273
0.00327777
0.00349545
0.00373258
0.00397561
0.00422012
0.00446993
0.00472073
0.00497112
0.00523053
0.00549427
0.00577185
0.00605313
0.00634633
0.00664913
0.00695439
0.00727678
0.00759387
0.00792764
0.00826322
0.00860455
0.00895635
0.00931432
0.00967639
0.00999506
0.0103486
0.00769655
0.00463402
-0.00142994
-0.00671953
-0.0086258
-0.00796975
-0.00676126
-0.00579999
-0.00506922
-0.0044931
-0.00410688
-0.00390305
-0.00379562
-0.00372133
-0.00361079
-0.0034161
-0.00320575
-0.0030532
-0.00295574
-0.00289144
-0.00282227
-0.00273768
-0.00269359
-0.00269987
-0.00268286
-0.00262005
-0.00254991
-0.00247314
-0.00238469
-0.00232223
-0.00227437
-0.00218578
-0.00207478
-0.00198629
-0.00191371
-0.00183614
-0.00175874
-0.0016901
-0.00162484
-0.00155357
-0.00146811
-0.00137478
-0.00128209
-0.00117668
-0.00106267
-0.000953824
-0.000846484
-0.000744338
-0.000648729
-0.000552363
-0.000444134
-0.000330895
-0.000220705
-0.000108283
1.0959e-05
0.00012702
0.000241241
0.000361497
0.000490386
0.000619472
0.000749357
0.000886594
0.00102032
0.00115635
0.00130394
0.00145745
0.00160616
0.00174738
0.00189327
0.00207699
0.00227899
0.00246717
0.00266244
0.00287812
0.00308286
0.00327787
0.00349553
0.00373267
0.00397568
0.00422019
0.00446999
0.00472079
0.00497117
0.00523057
0.0054943
0.00577188
0.00605316
0.00634635
0.00664915
0.00695441
0.00727679
0.00759388
0.00792765
0.00826324
0.00860456
0.00895635
0.00931433
0.00967642
0.00999512
0.0103487
0.00709586
0.0044394
-0.00118749
-0.00632839
-0.00836609
-0.00785833
-0.00670281
-0.00575415
-0.00503268
-0.00446728
-0.00408994
-0.00389122
-0.00378489
-0.00370922
-0.0035981
-0.00340568
-0.00319893
-0.00304865
-0.0029513
-0.00288627
-0.00281722
-0.00273361
-0.00269009
-0.00269615
-0.00267884
-0.00261603
-0.00254625
-0.00247014
-0.00238224
-0.00231992
-0.00227204
-0.00218364
-0.00207291
-0.00198449
-0.00191183
-0.00183429
-0.00175706
-0.00168861
-0.00162351
-0.00155239
-0.00146708
-0.00137386
-0.00128125
-0.00117588
-0.00106191
-0.000953138
-0.000845873
-0.000743786
-0.000648213
-0.000551872
-0.00044366
-0.000330427
-0.000220248
-0.000107848
1.13728e-05
0.000127422
0.000241644
0.000361908
0.000490793
0.000619855
0.000749706
0.000886938
0.00102066
0.00115669
0.00130425
0.00145774
0.00160643
0.00174764
0.0018935
0.00207721
0.0022792
0.00246736
0.00266263
0.0028783
0.00308302
0.003278
0.00349565
0.00373278
0.00397579
0.00422028
0.00447008
0.00472087
0.00497124
0.00523063
0.00549435
0.00577192
0.0060532
0.00634639
0.00664918
0.00695443
0.00727682
0.0075939
0.00792766
0.00826325
0.00860457
0.00895637
0.00931434
0.00967645
0.00999521
0.0103488
0.00651044
0.00421275
-0.000962032
-0.00593186
-0.0080904
-0.00773895
-0.00664288
-0.0057065
-0.00499309
-0.00443856
-0.00407086
-0.00387781
-0.00377273
-0.00369546
-0.00358363
-0.00339384
-0.00319135
-0.00304386
-0.00294667
-0.00288063
-0.00281168
-0.00272941
-0.00268657
-0.00269207
-0.00267403
-0.00261093
-0.00254134
-0.00246602
-0.00237899
-0.00231688
-0.00226897
-0.00218095
-0.00207074
-0.00198241
-0.00190954
-0.00183194
-0.00175487
-0.00168662
-0.00162168
-0.00155075
-0.00146568
-0.00137266
-0.00128016
-0.00117485
-0.00106094
-0.00095227
-0.00084512
-0.000743126
-0.0006476
-0.000551289
-0.000443108
-0.000329889
-0.000219717
-0.000107344
1.18383e-05
0.00012787
0.000242111
0.000362402
0.000491288
0.000620319
0.000750127
0.000887357
0.00102111
0.00115714
0.00130467
0.00145811
0.00160678
0.00174799
0.00189383
0.0020775
0.00227947
0.00246762
0.00266289
0.00287855
0.00308323
0.00327818
0.00349582
0.00373294
0.00397594
0.00422042
0.0044702
0.00472098
0.00497133
0.00523071
0.00549442
0.00577199
0.00605325
0.00634643
0.00664923
0.00695447
0.00727686
0.00759393
0.00792769
0.00826328
0.00860459
0.00895639
0.00931435
0.00967648
0.00999533
0.0103489
0.0059462
0.0039586
-0.000755669
-0.00553002
-0.00779666
-0.00760982
-0.00658152
-0.00565806
-0.00495125
-0.00440732
-0.00404982
-0.003863
-0.00375948
-0.00368068
-0.00356813
-0.00338115
-0.00318327
-0.00303885
-0.0029419
-0.00287473
-0.00280589
-0.00272525
-0.00268328
-0.00268803
-0.00266891
-0.00260514
-0.00253539
-0.00246078
-0.00237476
-0.00231291
-0.00226496
-0.00217759
-0.00206825
-0.00198013
-0.00190696
-0.00182922
-0.00175228
-0.00168416
-0.0016193
-0.00154856
-0.00146381
-0.00137109
-0.00127876
-0.00117356
-0.00105974
-0.000951181
-0.000844177
-0.000742306
-0.000646834
-0.000550566
-0.000442441
-0.000329249
-0.000219078
-0.00010674
1.23765e-05
0.000128382
0.000242659
0.000362997
0.000491891
0.000620881
0.000750634
0.000887866
0.00102167
0.00115774
0.00130523
0.00145858
0.00160723
0.00174847
0.00189429
0.00207789
0.00227983
0.00246798
0.00266325
0.00287888
0.00308351
0.00327844
0.00349607
0.00373317
0.00397615
0.00422061
0.00447039
0.00472114
0.00497147
0.00523084
0.00549453
0.00577208
0.00605334
0.0063465
0.00664929
0.00695452
0.00727691
0.00759397
0.00792773
0.00826331
0.00860461
0.00895642
0.00931436
0.00967652
0.00999548
0.0103492
0.00540991
0.00368478
-0.000570051
-0.00512518
-0.00748523
-0.00747048
-0.00651943
-0.00561017
-0.00490804
-0.00437381
-0.00402683
-0.00384688
-0.00374536
-0.00366522
-0.00355199
-0.00336787
-0.00317475
-0.00303358
-0.00293697
-0.00286867
-0.00279997
-0.00272114
-0.00268022
-0.0026842
-0.00266385
-0.00259911
-0.00252885
-0.00245473
-0.00236967
-0.00230802
-0.00226
-0.00217349
-0.00206535
-0.00197763
-0.00190421
-0.00182633
-0.00174949
-0.0016814
-0.00161648
-0.00154584
-0.00146142
-0.00136905
-0.00127697
-0.00117196
-0.00105829
-0.000949872
-0.000843031
-0.00074129
-0.000645863
-0.000549643
-0.000441613
-0.000328473