/*--------------------------------*- C++ -*----------------------------------*\
| =========                 |                                                 |
| \\      /  F ield         | OpenFOAM: The Open Source CFD Toolbox           |
|  \\    /   O peration     | Version:  3.0.1                                 |
|   \\  /    A nd           | Web:      www.OpenFOAM.org                      |
|    \\/     M anipulation  |                                                 |
\*---------------------------------------------------------------------------*/
FoamFile
{
    version     2.0;
    format      ascii;
    class       surfaceScalarField;
    location    "0.8";
    object      phi;
}
// * * * * * * * * * * * * * * * * * * * * * * * * * * * * * * * * * * * * * //

dimensions      [0 3 -1 0 0 0 0];

internalField   nonuniform List<scalar> 
19000
(
1.17171e-06
-1.02901e-07
1.15725e-06
-5.94798e-07
1.17886e-06
2.90777e-07
1.14722e-06
6.8004e-08
1.17062e-06
-4.65399e-09
1.1983e-06
1.29763e-07
1.17964e-06
-4.64041e-08
1.181e-06
3.38591e-08
1.1956e-06
3.74421e-07
1.16631e-06
-1.65882e-07
1.18978e-06
3.11838e-07
1.16016e-06
-3.55945e-07
1.18443e-06
-2.3901e-07
1.17486e-06
-1.49713e-07
1.18193e-06
-1.53371e-07
1.17553e-06
-1.77339e-09
1.17972e-06
6.03483e-09
1.16843e-06
2.91018e-08
1.16757e-06
6.69987e-08
9.12786e-08
1.1407e-06
1.2266e-06
-1.05243e-07
1.21158e-06
-5.79772e-07
1.23222e-06
2.70133e-07
1.20553e-06
9.46918e-08
1.22714e-06
-2.62554e-08
1.25676e-06
1.00138e-07
1.23701e-06
-2.66569e-08
1.24083e-06
3.00454e-08
1.24954e-06
3.6571e-07
1.22592e-06
-1.42266e-07
1.23966e-06
2.98096e-07
1.21819e-06
-3.34467e-07
1.23313e-06
-2.53958e-07
1.23659e-06
-1.53172e-07
1.23269e-06
-1.49472e-07
1.24257e-06
-1.16466e-08
1.22812e-06
2.04863e-08
1.23984e-06
1.73746e-08
1.21136e-06
9.54834e-08
7.84644e-08
1.22417e-06
1.28216e-06
-1.04621e-07
1.27024e-06
-5.67851e-07
1.28833e-06
2.52047e-07
1.27049e-06
1.12529e-07
1.2868e-06
-4.25654e-08
1.3179e-06
6.90329e-08
1.2974e-06
-6.15504e-09
1.30359e-06
2.38595e-08
1.30729e-06
3.62009e-07
1.29091e-06
-1.25884e-07
1.29601e-06
2.92997e-07
1.28407e-06
-3.22531e-07
1.28618e-06
-2.56072e-07
1.29914e-06
-1.66124e-07
1.28958e-06
-1.39914e-07
1.30268e-06
-2.47508e-08
1.2897e-06
3.34648e-08
1.29668e-06
1.03946e-08
1.28183e-06
1.1034e-07
8.77766e-08
1.27251e-06
1.33901e-06
-9.95237e-08
1.33255e-06
-5.61396e-07
1.34791e-06
2.36689e-07
1.33992e-06
1.20518e-07
1.35065e-06
-5.32954e-08
1.37918e-06
4.0507e-08
1.36067e-06
1.23459e-08
1.36761e-06
1.69224e-08
1.36929e-06
3.60336e-07
1.35789e-06
-1.14492e-07
1.35817e-06
2.92717e-07
1.34997e-06
-3.14325e-07
1.34527e-06
-2.51376e-07
1.35874e-06
-1.79593e-07
1.3531e-06
-1.34274e-07
1.3619e-06
-3.35496e-08
1.35741e-06
3.79519e-08
1.35847e-06
9.33649e-09
1.35229e-06
1.16517e-07
1.01715e-07
1.33836e-06
1.39853e-06
-8.96991e-08
1.39771e-06
-5.60577e-07
1.41128e-06
2.23116e-07
1.4109e-06
1.20898e-07
1.41814e-06
-6.05271e-08
1.43995e-06
1.86877e-08
1.42609e-06
2.6211e-08
1.43263e-06
1.03863e-08
1.43447e-06
3.58493e-07
1.42516e-06
-1.05186e-07
1.42358e-06
2.94299e-07
1.41434e-06
-3.05084e-07
1.40784e-06
-2.44875e-07
1.41826e-06
-1.90021e-07
1.41776e-06
-1.3377e-07
1.42484e-06
-4.06272e-08
1.42511e-06
3.76815e-08
1.42526e-06
9.18283e-09
1.42221e-06
1.19566e-07
1.14656e-07
1.40927e-06
1.46251e-06
-7.65298e-08
1.46545e-06
-5.63523e-07
1.47821e-06
2.10355e-07
1.48209e-06
1.1702e-07
1.4881e-06
-6.65383e-08
1.50136e-06
5.43067e-09
1.49255e-06
3.50203e-08
1.49879e-06
4.14619e-09
1.50136e-06
3.55926e-07
1.49265e-06
-9.6473e-08
1.49059e-06
2.96353e-07
1.47928e-06
-2.93776e-07
1.47246e-06
-2.38053e-07
1.47983e-06
-1.97393e-07
1.48203e-06
-1.35963e-07
1.48957e-06
-4.81761e-08
1.49245e-06
3.48042e-08
1.49276e-06
8.87319e-09
1.4927e-06
1.1963e-07
1.26214e-07
1.48114e-06
1.53203e-06
-6.2346e-08
1.53607e-06
-5.67557e-07
1.54822e-06
1.98199e-07
1.55383e-06
1.11409e-07
1.55957e-06
-7.2279e-08
1.56508e-06
-7.85922e-11
1.55983e-06
4.02731e-08
1.56616e-06
-2.18563e-09
1.56932e-06
3.52772e-07
1.56108e-06
-8.82367e-08
1.5595e-06
2.97938e-07
1.54708e-06
-2.81365e-07
1.5401e-06
-2.31063e-07
1.54477e-06
-2.02071e-07
1.54772e-06
-1.38909e-07
1.55539e-06
-5.58475e-08
1.56026e-06
2.99397e-08
1.56032e-06
8.81033e-09
1.56319e-06
1.1676e-07
1.36029e-07
1.55337e-06
1.60708e-06
-4.92939e-08
1.60998e-06
-5.70463e-07
1.62103e-06
1.87151e-07
1.62716e-06
1.05275e-07
1.63235e-06
-7.74609e-08
1.63246e-06
-1.94766e-10
1.62894e-06
4.37957e-08
1.63521e-06
-8.45847e-09
1.63891e-06
3.49076e-07
1.63161e-06
-8.09402e-08
1.63143e-06
2.98118e-07
1.61913e-06
-2.69057e-07
1.61211e-06
-2.24047e-07
1.61414e-06
-2.04102e-07
1.61681e-06
-1.41578e-07
1.62337e-06
-6.24113e-08
1.62952e-06
2.3797e-08
1.62886e-06
9.46828e-09
1.63387e-06
1.11745e-07
1.43929e-07
1.62597e-06
1.68687e-06
-3.85945e-08
1.6875e-06
-5.7109e-07
1.69684e-06
1.77816e-07
1.70309e-06
9.90252e-08
1.70703e-06
-8.13998e-08
1.7043e-06
2.5333e-09
1.70138e-06
4.67099e-08
1.70704e-06
-1.41186e-08
1.71141e-06
3.44706e-07
1.70544e-06
-7.49687e-08
1.70737e-06
2.96192e-07
1.69588e-06
-2.5757e-07
1.68907e-06
-2.17237e-07
1.68848e-06
-2.03511e-07
1.6904e-06
-1.43498e-07
1.69483e-06
-6.68405e-08
1.7014e-06
1.72231e-08
1.6996e-06
1.12742e-08
1.70565e-06
1.05692e-07
1.50082e-07
1.6995e-06
1.77063e-06
-3.05035e-08
1.76879e-06
-5.69254e-07
1.77618e-06
1.70428e-07
1.78237e-06
9.2837e-08
1.78459e-06
-8.362e-08
1.78099e-06
6.12883e-09
1.77833e-06
4.93729e-08
1.7829e-06
-1.86915e-08
1.78809e-06
3.39523e-07
1.78348e-06
-7.0357e-08
1.78777e-06
2.91901e-07
1.77724e-06
-2.47041e-07
1.77083e-06
-2.10826e-07
1.76778e-06
-2.0047e-07
1.76887e-06
-1.44584e-07
1.77064e-06
-6.86074e-08
1.77696e-06
1.0898e-08
1.77376e-06
1.44783e-08
1.77971e-06
9.97438e-08
1.54756e-07
1.77503e-06
1.85793e-06
-2.46836e-08
1.85398e-06
-5.65307e-07
1.8596e-06
1.6481e-07
1.86556e-06
8.6874e-08
1.86594e-06
-8.39999e-08
1.86271e-06
9.36477e-09
1.86034e-06
5.17371e-08
1.86364e-06
-2.19934e-08
1.8697e-06
3.33471e-07
1.86618e-06
-6.68386e-08
1.8727e-06
2.85382e-07
1.86286e-06
-2.37208e-07
1.85698e-06
-2.04944e-07
1.85177e-06
-1.95261e-07
1.85221e-06
-1.45016e-07
1.85127e-06
-6.76704e-08
1.85693e-06
5.2355e-09
1.85239e-06
1.90194e-08
1.85724e-06
9.48979e-08
1.58103e-07
1.85389e-06
1.94874e-06
-2.05886e-08
1.94319e-06
-5.59758e-07
1.94743e-06
1.6058e-07
1.95305e-06
8.12453e-08
1.95174e-06
-8.26834e-08
1.94945e-06
1.16529e-08
1.94753e-06
5.366e-08
1.94959e-06
-2.40541e-08
1.95647e-06
3.26592e-07
1.95365e-06
-6.40175e-08
1.96206e-06
2.76968e-07
1.95251e-06
-2.27655e-07
1.94725e-06
-1.99689e-07
1.94018e-06
-1.88187e-07
1.94025e-06
-1.45091e-07
1.93694e-06
-6.43551e-08
1.94171e-06
4.6119e-10
1.93621e-06
2.45192e-08
1.93925e-06
9.18582e-08
1.6012e-07
1.93723e-06
2.04328e-06
-1.7681e-08
2.03659e-06
-5.5307e-07
2.03982e-06
1.57358e-07
2.04511e-06
7.59509e-08
2.04239e-06
-7.99656e-08
2.04118e-06
1.28626e-08
2.0398e-06
5.50439e-08
2.04073e-06
-2.49868e-08
2.04833e-06
3.1899e-07
2.04582e-06
-6.15025e-08
2.05579e-06
2.67e-07
2.04611e-06
-2.17982e-07
2.04157e-06
-1.95142e-07
2.0329e-06
-1.79522e-07
2.03289e-06
-1.45076e-07
2.02774e-06
-5.92121e-08
2.03147e-06
-3.26515e-09
2.0256e-06
3.03868e-08
2.02652e-06
9.09407e-08
1.60796e-07
2.02584e-06
2.14183e-06
-1.55072e-08
2.13438e-06
-5.45625e-07
2.13688e-06
1.5486e-07
2.14192e-06
7.09064e-08
2.13817e-06
-7.62083e-08
2.13789e-06
1.31441e-08
2.13706e-06
5.58661e-08
2.13701e-06
-2.49308e-08
2.14522e-06
3.10779e-07
2.14268e-06
-5.89623e-08
2.15392e-06
2.55754e-07
2.14383e-06
-2.07883e-07
2.14005e-06
-1.91366e-07
2.13004e-06
-1.69514e-07
2.13009e-06
-1.4512e-07
2.12377e-06
-5.28985e-08
2.12627e-06
-5.76005e-09
2.12069e-06
3.596e-08
2.11952e-06
9.21092e-08
1.60232e-07
2.12009e-06
2.24469e-06
-1.37076e-08
2.2368e-06
-5.37734e-07
2.23876e-06
1.52902e-07
2.24365e-06
6.6009e-08
2.23922e-06
-7.17754e-08
2.23959e-06
1.27757e-08
2.23929e-06
5.61626e-08
2.2384e-06
-2.40386e-08
2.24715e-06
3.02028e-07
2.24432e-06
-5.61349e-08
2.25665e-06
2.43426e-07
2.24592e-06
-1.97151e-07
2.24294e-06
-1.88388e-07
2.23184e-06
-1.58412e-07
2.23193e-06
-1.45206e-07
2.22512e-06
-4.60908e-08
2.22616e-06
-6.80116e-09
2.22147e-06
4.06493e-08
2.21858e-06
9.49988e-08
1.58746e-07
2.22007e-06
2.35218e-06
-1.20119e-08
2.3441e-06
-5.29654e-07
2.34564e-06
1.51366e-07
2.35046e-06
6.11867e-08
2.34566e-06
-6.69803e-08
2.34639e-06
1.20467e-08
2.34656e-06
5.59973e-08
2.34498e-06
-2.246e-08
2.35426e-06
2.92748e-07
2.35095e-06
-5.28248e-08
2.36422e-06
2.30155e-07
2.35273e-06
-1.85666e-07
2.35052e-06
-1.86179e-07
2.33861e-06
-1.46497e-07
2.33855e-06
-1.45147e-07
2.3319e-06
-3.94384e-08
2.33123e-06
-6.1379e-09
2.32785e-06
4.40356e-08
2.32378e-06
9.90625e-08
1.56791e-07
2.32574e-06
2.46461e-06
-1.02309e-08
2.45655e-06
-5.21587e-07
2.45773e-06
1.50182e-07
2.46251e-06
5.64085e-08
2.45758e-06
-6.2055e-08
2.45844e-06
1.11947e-08
2.45901e-06
5.54285e-08
2.45686e-06
-2.03129e-08
2.46671e-06
2.82901e-07
2.46278e-06
-4.89005e-08
2.47688e-06
2.16058e-07
2.46461e-06
-1.73402e-07
2.46307e-06
-1.8463e-07
2.45067e-06
-1.34098e-07
2.45015e-06
-1.4463e-07
2.4442e-06
-3.34902e-08
2.44169e-06
-3.62819e-09
2.4397e-06
4.6025e-08
2.43511e-06
1.03656e-07
1.54835e-07
2.43707e-06
2.58231e-06
-8.2446e-09
2.5744e-06
-5.13681e-07
2.57527e-06
1.49309e-07
2.58001e-06
5.16715e-08
2.57511e-06
-5.71501e-08
2.57591e-06
1.03925e-08
2.57685e-06
5.44834e-08
2.5742e-06
-1.76641e-08
2.58468e-06
2.72428e-07
2.58007e-06
-4.42966e-08
2.59488e-06
2.0125e-07
2.58191e-06
-1.60426e-07
2.58082e-06
-1.83548e-07
2.56832e-06
-1.21598e-07
2.56696e-06
-1.43265e-07
2.56213e-06
-2.86645e-08
2.55783e-06
6.79192e-10
2.55696e-06
4.68926e-08
2.55253e-06
1.08085e-07
1.53277e-07
2.55409e-06
2.70557e-06
-5.98422e-09
2.69792e-06
-5.06031e-07
2.6985e-06
1.48729e-07
2.70318e-06
4.69864e-08
2.69839e-06
-5.23585e-08
2.69902e-06
9.76601e-09
2.70035e-06
5.31484e-08
2.69722e-06
-1.45287e-08
2.70836e-06
2.61283e-07
2.70307e-06
-3.90065e-08
2.71845e-06
1.85869e-07
2.70493e-06
-1.46905e-07
2.70404e-06
-1.82658e-07
2.69186e-06
-1.0941e-07
2.68924e-06
-1.40652e-07
2.68578e-06
-2.51987e-08
2.67994e-06
6.51516e-09
2.67966e-06
4.71777e-08
2.67604e-06
1.11698e-07
1.52371e-07
2.67695e-06
2.8347e-06
-3.41443e-09
2.82737e-06
-4.98698e-07
2.82766e-06
1.48435e-07
2.83227e-06
4.23724e-08
2.82766e-06
-4.77454e-08
2.82801e-06
9.41888e-09
2.82978e-06
5.13746e-08
2.82614e-06
-1.08903e-08
2.83798e-06
2.49447e-07
2.83205e-06
-3.30814e-08
2.84783e-06
1.70095e-07
2.83402e-06
-1.33092e-07
2.83298e-06
-1.81624e-07
2.82151e-06
-9.79377e-08
2.81732e-06
-1.3646e-07
2.81524e-06
-2.31226e-08
2.80832e-06
1.34398e-08
2.80803e-06
4.74638e-08
2.80569e-06
1.14037e-07
1.52161e-07
2.8059e-06
2.97e-06
-5.192e-10
2.96302e-06
-4.91715e-07
2.96303e-06
1.48423e-07
2.96754e-06
3.78598e-08
2.96317e-06
-4.33732e-08
2.96314e-06
9.45278e-09
2.96542e-06
4.90905e-08
2.96126e-06
-6.72658e-09
2.97376e-06
2.36944e-07
2.96731e-06
-2.66334e-08
2.98324e-06
1.54165e-07
2.96946e-06
-1.19313e-07
2.96792e-06
-1.80085e-07
2.9575e-06
-8.75161e-08
2.95157e-06
-1.30531e-07
2.95067e-06
-2.22224e-08
2.94319e-06
2.09242e-08
2.94244e-06
4.82093e-08
2.94157e-06
1.14905e-07
1.52493e-07
2.94124e-06
3.11178e-06
2.70657e-09
3.10516e-06
-4.85098e-07
3.10491e-06
1.48678e-07
3.10927e-06
3.34956e-08
3.10522e-06
-3.93167e-08
3.10469e-06
9.97806e-09
3.10757e-06
4.62137e-08
3.10287e-06
-2.02929e-09
3.11597e-06
2.23848e-07
3.10917e-06
-1.98395e-08
3.12496e-06
1.38379e-07
3.11158e-06
-1.05933e-07
3.10918e-06
-1.77693e-07
3.10004e-06
-7.83691e-08
3.09241e-06
-1.22903e-07
3.0923e-06
-2.21144e-08
3.08478e-06
2.84457e-08
3.0833e-06
4.969e-08
3.08385e-06
1.14359e-07
1.53044e-07
3.08329e-06
3.26036e-06
6.26079e-09
3.2541e-06
-4.78846e-07
3.25361e-06
1.49169e-07
3.25776e-06
2.93486e-08
3.25411e-06
-3.56686e-08
3.25298e-06
1.11147e-08
3.25652e-06
4.26654e-08
3.25132e-06
3.17852e-09
3.26487e-06
2.10299e-07
3.25798e-06
-1.29553e-08
3.27326e-06
1.23104e-07
3.26065e-06
-9.33214e-08
3.25713e-06
-1.74175e-07
3.24931e-06
-7.05533e-08
3.2402e-06
-1.13791e-07
3.24044e-06
-2.23541e-08
3.23331e-06
3.55732e-08
3.23099e-06
5.20122e-08
3.23273e-06
1.12619e-07
1.53409e-07
3.23237e-06
3.41606e-06
1.0135e-08
3.41016e-06
-4.72947e-07
3.40949e-06
1.49841e-07
3.41332e-06
2.55121e-08
3.41019e-06
-3.25379e-08
3.40832e-06
1.29846e-08
3.4126e-06
3.83847e-08
3.40695e-06
8.83148e-09
3.42075e-06
1.96498e-07
3.4141e-06
-6.30322e-09
3.42847e-06
1.08733e-07
3.41693e-06
-8.17874e-08
3.41215e-06
-1.69389e-07
3.40556e-06
-6.3964e-08
3.39527e-06
-1.03497e-07
3.39547e-06
-2.25613e-08
3.38904e-06
4.20073e-08
3.38588e-06
5.51713e-08
3.38852e-06
1.0998e-07
1.53181e-07
3.38875e-06
3.57923e-06
1.43141e-08
3.57365e-06
-4.6737e-07
3.57288e-06
1.50612e-07
3.57629e-06
2.21068e-08
3.5738e-06
-3.00465e-08
3.57108e-06
1.56985e-08
3.57612e-06
3.33464e-08
3.57014e-06
1.48107e-08
3.58393e-06
1.82715e-07
3.57787e-06
-2.5109e-10
3.59097e-06
9.56394e-08
3.58069e-06
-7.15118e-08
3.57466e-06
-1.63362e-07
3.56905e-06
-5.83486e-08
3.55791e-06
-9.23608e-08
3.5578e-06
-2.24464e-08
3.55225e-06
4.75527e-08
3.54835e-06
5.90746e-08
3.55154e-06
1.06783e-07
1.5201e-07
3.55272e-06
3.75024e-06
1.87751e-08
3.74494e-06
-4.62066e-07
3.74419e-06
1.51368e-07
3.74701e-06
1.92834e-08
3.74529e-06
-2.83252e-08
3.74163e-06
1.93521e-08
3.74741e-06
2.75666e-08
3.74129e-06
2.09368e-08
3.75472e-06
1.69284e-07
3.74965e-06
4.82066e-09
3.76118e-06
8.41078e-08
3.75216e-06
-6.24917e-08
3.74509e-06
-1.56291e-07
3.74009e-06
-5.33482e-08
3.72844e-06
-8.07084e-08
3.72781e-06
-2.1823e-08
3.72329e-06
5.20788e-08
3.71878e-06
6.35802e-08
3.72217e-06
1.03392e-07
1.49646e-07
3.72453e-06
3.92948e-06
2.34864e-08
3.92438e-06
-4.5697e-07
3.92379e-06
1.51954e-07
3.92585e-06
1.72224e-08
3.92503e-06
-2.75009e-08
3.92038e-06
2.40019e-08
3.92682e-06
2.11303e-08
3.9208e-06
2.69574e-08
3.9335e-06
1.56576e-07
3.92972e-06
8.60036e-09
3.93958e-06
7.42554e-08
3.93162e-06
-5.45329e-08
3.92381e-06
-1.48481e-07
3.91908e-06
-4.86238e-08
3.90715e-06
-6.87765e-08
3.90592e-06
-2.05934e-08
3.90252e-06
5.54776e-08
3.8976e-06
6.85067e-08
3.90079e-06
1.00202e-07
1.45958e-07
3.90448e-06
4.11733e-06
2.84062e-08
4.11235e-06
-4.51989e-07
4.11213e-06
1.52177e-07
4.11322e-06
1.61315e-08
4.1134e-06
-2.76839e-08
4.10775e-06
2.96521e-08
4.11467e-06
1.42068e-08
4.10908e-06
3.25469e-08
4.12069e-06
1.44973e-07
4.11839e-06
1.08991e-08
4.12665e-06
6.59979e-08
4.11939e-06
-4.72776e-08
4.11115e-06
-1.40244e-07
4.1065e-06
-4.39682e-08
4.0944e-06
-5.6674e-08
4.09254e-06
-1.87387e-08
4.09033e-06
5.76902e-08
4.08524e-06
7.3594e-08
4.08783e-06
9.76149e-08
1.4098e-07
4.09281e-06
4.31423e-06
3.34821e-08
4.30925e-06
-4.4701e-07
4.30963e-06
1.51796e-07
4.30952e-06
1.62421e-08
4.31079e-06
-2.89522e-08
4.30421e-06
3.62268e-08
4.31135e-06
7.07138e-09
4.30658e-06
3.73171e-08
4.31673e-06
1.34821e-07
4.31593e-06
1.16935e-08
4.32286e-06
5.90694e-08
4.31586e-06
-4.02762e-08
4.30741e-06
-1.31795e-07
4.30279e-06
-3.93445e-08
4.29059e-06
-4.44738e-08
4.2881e-06
-1.62509e-08
4.28706e-06
5.87299e-08
4.28216e-06
7.84974e-08
4.28382e-06
9.59577e-08
1.34989e-07
4.28981e-06
4.52061e-06
3.86502e-08
4.51549e-06
-4.41893e-07
4.51676e-06
1.50528e-07
4.5152e-06
1.77976e-08
4.51758e-06
-3.13348e-08
4.51025e-06
4.35557e-08
4.51722e-06
1.10238e-10
4.5137e-06
4.08321e-08
4.52215e-06
1.26374e-07
4.52269e-06
1.11515e-08
4.52865e-06
5.31044e-08
4.52151e-06
-3.31368e-08
4.51288e-06
-1.23156e-07
4.50843e-06
-3.48984e-08
4.49621e-06
-3.22583e-08
4.49306e-06
-1.30997e-08
4.4931e-06
5.86923e-08
4.48876e-06
8.28373e-08
4.48936e-06
9.53612e-08
1.28532e-07
4.49581e-06
4.73693e-06
4.3835e-08
4.73151e-06
-4.36473e-07
4.73397e-06
1.48073e-07
4.73075e-06
2.10141e-08
4.73421e-06
-3.47935e-08
4.72639e-06
5.13757e-08
4.7327e-06
-6.20501e-09
4.73088e-06
4.2658e-08
4.73749e-06
1.19763e-07
4.73902e-06
9.61742e-09
4.74442e-06
4.77099e-08
4.73688e-06
-2.55958e-08
4.72795e-06
-1.14231e-07
4.72389e-06
-3.08411e-08
4.71186e-06
-2.02212e-08
4.70789e-06
-9.134e-09
4.70885e-06
5.77303e-08
4.70543e-06
8.62618e-08
4.70506e-06
9.57341e-08
1.22277e-07
4.71131e-06
4.96368e-06
4.89511e-08
4.95777e-06
-4.30561e-07
4.9617e-06
1.44145e-07
4.95667e-06
2.60371e-08
4.96108e-06
-3.9199e-08
4.95313e-06
5.93287e-08
4.95827e-06
-1.13522e-08
4.9585e-06
4.24365e-08
4.96331e-06
1.14945e-07
4.96535e-06
7.57833e-09
4.97053e-06
4.25306e-08
4.96247e-06
-1.75338e-08
4.95308e-06
-1.04841e-07
4.94966e-06
-2.7425e-08
4.93806e-06
-8.61972e-09
4.93314e-06
-4.21323e-09
4.93479e-06
5.60863e-08
4.9325e-06
8.85421e-08
4.93149e-06
9.6748e-08
1.16821e-07
4.93695e-06
5.20137e-06
5.39024e-08
5.19475e-06
-4.23945e-07
5.20039e-06
1.38507e-07
5.19353e-06
3.28975e-08
5.19865e-06
-4.43214e-08
5.19101e-06
6.69715e-08
5.19444e-06
-1.47851e-08
5.19694e-06
3.99406e-08
5.20019e-06
1.11694e-07
5.20214e-06
5.62281e-09
5.20737e-06
3.72999e-08
5.19884e-06
-9.00261e-09
5.18879e-06
-9.47848e-08
5.18617e-06
-2.48066e-08
5.17536e-06
2.18806e-09
5.16941e-06
1.7408e-09
5.1714e-06
5.40942e-08
5.17037e-06
8.95689e-08
5.16914e-06
9.79784e-08
1.12483e-07
5.17348e-06
5.45051e-06
5.85852e-08
5.44296e-06
-4.16398e-07
5.45046e-06
1.31003e-07
5.4419e-06
4.14556e-08
5.4474e-06
-4.98188e-08
5.44056e-06
7.38159e-08
5.44184e-06
-1.60661e-08
5.44654e-06
3.52355e-08
5.44868e-06
1.09561e-07
5.44995e-06
4.35281e-09
5.45545e-06
3.17948e-08
5.44659e-06
-1.41741e-10
5.43568e-06
-8.38697e-08
5.43386e-06
-2.29869e-08
5.42424e-06
1.18064e-08
5.41732e-06
8.66048e-09
5.41927e-06
5.21388e-08
5.41947e-06
8.93672e-08
5.41841e-06
9.90419e-08
1.09237e-07
5.42166e-06
5.71165e-06
6.28915e-08
5.70294e-06
-4.07681e-07
5.71236e-06
1.21578e-07
5.70242e-06
5.13959e-08
5.70787e-06
-5.5264e-08
5.70231e-06
7.93765e-08
5.70114e-06
-1.49044e-08
5.70772e-06
2.86553e-08
5.70932e-06
1.07968e-07
5.70932e-06
4.34917e-09
5.71521e-06
2.59034e-08
5.70646e-06
8.61423e-09
5.69451e-06
-7.19286e-08
5.69324e-06
-2.17074e-08
5.68516e-06
1.98814e-08
5.67748e-06
1.63373e-08
5.67904e-06
5.05852e-08
5.68032e-06
8.8088e-08
5.67971e-06
9.96436e-08
1.06823e-07
5.68213e-06
5.98537e-06
6.67131e-08
5.97525e-06
-3.97558e-07
5.98655e-06
1.10275e-07
5.97571e-06
6.22339e-08
5.98061e-06
-6.01574e-08
5.97676e-06
8.32263e-08
5.97307e-06
-1.12151e-08
5.98097e-06
2.07517e-08
5.9826e-06
1.06343e-07
5.98091e-06
6.03527e-09
5.98706e-06
1.97555e-08
5.97908e-06
1.65918e-08
5.96609e-06
-5.89355e-08
5.96488e-06
-2.04973e-08
5.95861e-06
2.61507e-08
5.95051e-06
2.4432e-08
5.95131e-06
4.97878e-08
5.95349e-06
8.591e-08
5.95353e-06
9.96011e-08
1.04919e-07
5.95543e-06
6.27226e-06
6.99414e-08
6.26049e-06
-3.85789e-07
6.27355e-06
9.72181e-08
6.2624e-06
7.3383e-08
6.26625e-06
-6.40104e-08
6.26441e-06
8.5071e-08
6.25836e-06
-5.1675e-09
6.26682e-06
1.22915e-08
6.26907e-06
1.04091e-07
6.26535e-06
9.76097e-09
6.27145e-06
1.36477e-08
6.26489e-06
2.31602e-08
6.25114e-06
-4.51877e-08
6.24944e-06
-1.87984e-08
6.24505e-06
3.05353e-08
6.23701e-06
3.24765e-08
6.2368e-06
4.99987e-08
6.23959e-06
8.31139e-08
6.24041e-06
9.87893e-08
1.03255e-07
6.24207e-06
6.57294e-06
7.24718e-08
6.5593e-06
-3.72145e-07
6.57394e-06
8.25769e-08
6.56308e-06
8.42404e-08
6.56548e-06
-6.64163e-08
6.56578e-06
8.47734e-08
6.55775e-06
2.86924e-09
6.56588e-06
4.15254e-09
6.56926e-06
1.00713e-07
6.56347e-06
1.55543e-08
6.56891e-06
8.20852e-09
6.56435e-06
2.77171e-08
6.55033e-06
-3.11673e-08
6.54769e-06
-1.61564e-08
6.54501e-06
3.3217e-08
6.53755e-06
3.99314e-08
6.53624e-06
5.13123e-08
6.5393e-06
8.00561e-08
6.54091e-06
9.71727e-08
1.01602e-07
6.54257e-06
6.88805e-06
7.42087e-08
6.87232e-06
-3.56408e-07
6.88838e-06
6.65128e-08
6.87838e-06
9.424e-08
6.87902e-06
-6.70608e-08
6.8814e-06
8.23952e-08
6.87191e-06
1.2364e-08
6.87887e-06
-2.81308e-09
6.88373e-06
9.58542e-08
6.87642e-06
2.28655e-08
6.88036e-06
4.26615e-09
6.87795e-06
3.01317e-08
6.86431e-06
-1.75247e-08
6.86043e-06
-1.22805e-08
6.85909e-06
3.45616e-08
6.85267e-06
4.63526e-08
6.85039e-06
5.35912e-08
6.85331e-06
7.71375e-08
6.85567e-06
9.48056e-08
9.97764e-08
6.8575e-06
7.21827e-06
7.50704e-08
7.20023e-06
-3.38366e-07
7.21757e-06
4.91805e-08
7.20896e-06
1.02847e-07
7.20764e-06
-6.5745e-08
7.21189e-06
7.81439e-08
7.20151e-06
2.27462e-08
7.20662e-06
-7.91734e-09
7.21308e-06
8.93889e-08
7.20506e-06
3.08826e-08
7.20693e-06
2.39901e-09
7.20629e-06
3.07693e-08
7.19362e-06
-4.85433e-09
7.18851e-06
-7.16368e-09
7.18798e-06
3.50843e-08
7.18289e-06
5.14409e-08
7.18e-06
5.64859e-08
7.18241e-06
7.47255e-08
7.18536e-06
9.18565e-08
9.76563e-08
7.18748e-06
7.5643e-06
7.49982e-08
7.54378e-06
-3.17853e-07
7.5622e-06
3.07659e-08
7.55548e-06
1.09569e-07
7.55213e-06
-6.24022e-08
7.5579e-06
7.23763e-08
7.54726e-06
3.3387e-08
7.55004e-06
-1.06931e-08
7.55797e-06
8.14546e-08
7.55001e-06
3.88449e-08
7.54958e-06
2.82939e-09
7.55015e-06
3.01999e-08
7.53887e-06
6.42659e-09
7.53268e-06
-9.80412e-10
7.53252e-06
3.52524e-08
7.52884e-06
5.51214e-08
7.52575e-06
5.95715e-08
7.52745e-06
7.30225e-08
7.53072e-06
8.85937e-08
9.51568e-08
7.53321e-06
7.92684e-06
7.39687e-08
7.90399e-06
-2.95e-07
7.92302e-06
1.17343e-08
7.91862e-06
1.1397e-07
7.91328e-06
-5.70641e-08
7.92011e-06
6.55431e-08
7.90991e-06
4.35916e-08
7.91013e-06
-1.09168e-08
7.91901e-06
7.25752e-08
7.91183e-06
4.60293e-08
7.90922e-06
5.43715e-09
7.91032e-06
2.91048e-08
7.90073e-06
1.60161e-08
7.89371e-06
6.0384e-09
7.89352e-06
3.54365e-08
7.8912e-06
5.74392e-08
7.88828e-06
6.24948e-08
7.88929e-06
7.20188e-08
7.89256e-06
8.53174e-08
9.22917e-08
7.89543e-06
8.30665e-06
7.20016e-08
8.28196e-06
-2.70309e-07
8.3008e-06
-7.10697e-09
8.29903e-06
1.15736e-07
8.29187e-06
-4.98963e-08
8.29927e-06
5.81386e-08
8.29012e-06
5.27447e-08
8.28785e-06
-8.64605e-09
8.29692e-06
6.3497e-08
8.29107e-06
5.18828e-08
8.28668e-06
9.8286e-09
8.28773e-06
2.80584e-08
8.2799e-06
2.3844e-08
8.27239e-06
1.35467e-08
8.27185e-06
3.59741e-08
8.27076e-06
5.85268e-08
8.26826e-06
6.49955e-08
8.26874e-06
7.15451e-08
8.27178e-06
8.22758e-08
8.91471e-08
8.27492e-06
8.70449e-06
6.91709e-08
8.67872e-06
-2.44534e-07
8.69632e-06
-2.47133e-08
8.69739e-06
1.14668e-07
8.68874e-06
-4.12418e-08
8.6962e-06
5.06745e-08
8.68854e-06
6.04019e-08
8.68412e-06
-4.22495e-09
8.69263e-06
5.49872e-08
8.68832e-06
5.61944e-08
8.68273e-06
1.54191e-08
8.68333e-06
2.74543e-08
8.67718e-06
2.99966e-08
8.66957e-06
2.11634e-08
8.66843e-06
3.71106e-08
8.66825e-06
5.87024e-08
8.6665e-06
6.67461e-08
8.66659e-06
7.14622e-08
8.66926e-06
7.95994e-08
8.58492e-08
8.67256e-06
9.12119e-06
6.56042e-08
9.09508e-06
-2.18426e-07
9.11045e-06
-4.00856e-08
9.11447e-06
1.10644e-07
9.10483e-06
-3.15993e-08
9.1118e-06
4.37116e-08
9.10589e-06
6.63028e-08
9.09988e-06
1.79191e-09
9.10715e-06
4.77106e-08
9.10431e-06
5.90413e-08
9.0981e-06
2.16243e-08
9.09809e-06
2.74675e-08
9.09343e-06
3.46558e-08
9.08611e-06
2.84797e-08
9.08418e-06
3.90464e-08
9.08456e-06
5.83156e-08
9.08376e-06
6.75458e-08
9.08369e-06
7.15373e-08
9.08594e-06
7.73482e-08
8.25537e-08
9.08924e-06
9.55759e-06
6.1477e-08
9.53191e-06
-1.92744e-07
9.54415e-06
-5.23304e-08
9.55112e-06
1.03676e-07
9.54114e-06
-2.16241e-08
9.547e-06
3.7854e-08
9.5429e-06
7.04079e-08
9.53596e-06
8.72443e-09
9.54168e-06
4.19905e-08
9.53995e-06
6.07708e-08
9.53351e-06
2.80667e-08
9.53287e-06
2.81055e-08
9.52959e-06
3.79387e-08
9.52286e-06
3.52089e-08
9.52013e-06
4.17759e-08
9.52069e-06
5.77535e-08
9.52075e-06
6.74865e-08
9.52092e-06
7.13661e-08
9.52275e-06
7.55261e-08
7.94097e-08
9.52589e-06
1.00146e-05
5.69966e-08
9.99006e-06
-1.68192e-07
9.99856e-06
-6.08326e-08
1.00081e-05
9.40953e-08
9.99864e-06
-1.21182e-08
1.00029e-05
3.35645e-08
1.00004e-05
7.29468e-08
9.99322e-06
1.58945e-08
9.99742e-06
3.77939e-08
9.99637e-06
6.18215e-08
9.98978e-06
3.46532e-08
9.98858e-06
2.93042e-08
9.98655e-06
3.99675e-08
9.98068e-06
4.10821e-08
9.97738e-06
4.50777e-08
9.97772e-06
5.74058e-08
9.97839e-06
6.68221e-08
9.97908e-06
7.06741e-08
9.98068e-06
7.39253e-08
7.65761e-08
9.98352e-06
1.04933e-05
5.23787e-08
1.04704e-05
-1.45338e-07
1.0475e-05
-6.54688e-08
1.04863e-05
8.27899e-08
1.04782e-05
-4.01428e-09
1.04808e-05
3.10525e-08
1.04793e-05
7.43894e-08
1.04725e-05
2.27288e-08
1.04755e-05
3.4786e-08
1.04748e-05
6.25043e-08
1.0468e-05
4.14679e-08
1.04661e-05
3.11489e-08
1.04652e-05
4.09433e-08
1.04605e-05
4.57117e-08
1.04569e-05
4.87276e-08
1.04567e-05
5.75558e-08
1.04578e-05
6.57815e-08
1.0459e-05
6.95011e-08
1.04607e-05
7.21877e-08
7.40738e-08
1.04632e-05
1.09946e-05
4.78175e-08
1.09738e-05
-1.24575e-07
1.0975e-05
-6.66138e-08
1.09868e-05
7.09994e-08
1.09807e-05
1.99389e-09
1.09818e-05
2.99685e-08
1.09807e-05
7.54939e-08
1.09745e-05
2.89649e-08
1.09768e-05
3.24481e-08
1.09766e-05
6.27788e-08
1.09695e-05
4.85419e-08
1.09665e-05
3.40934e-08
1.09664e-05
4.10819e-08
1.09634e-05
4.87528e-08
1.09596e-05
5.24307e-08
1.0959e-05
5.82516e-08
1.09601e-05
6.46654e-08
1.09615e-05
6.80236e-08
1.09636e-05
7.01378e-08
7.17038e-08
1.0966e-05
1.15197e-05
4.34791e-08
1.15013e-05
-1.06134e-07
1.14996e-05
-6.49148e-08
1.15106e-05
5.99193e-08
1.1507e-05
5.6363e-09
1.15073e-05
2.96283e-08
1.1506e-05
7.68596e-08
1.15001e-05
3.48201e-08
1.15023e-05
3.0272e-08
1.15027e-05
6.23372e-08
1.14955e-05
5.57925e-08
1.14911e-05
3.84988e-08
1.14913e-05
4.08766e-08
1.14899e-05
5.01646e-08
1.14867e-05
5.55925e-08
1.14855e-05
5.94376e-08
1.14864e-05
6.37803e-08
1.14881e-05
6.63508e-08
1.14903e-05
6.78775e-08
6.91971e-08
1.14929e-05
1.20698e-05
3.94804e-08
1.20537e-05
-9.00482e-08
1.205e-05
-6.11524e-08
1.20594e-05
5.04603e-08
1.20579e-05
7.20036e-09
1.20584e-05
2.91264e-08
1.20566e-05
7.86582e-08
1.20504e-05
4.09549e-08
1.20526e-05
2.81102e-08
1.20543e-05
6.06376e-08
1.20473e-05
6.28174e-08
1.20414e-05
4.43769e-08
1.2041e-05
4.12316e-08
1.2041e-05
5.01769e-08
1.20391e-05
5.7564e-08
1.20375e-05
6.09611e-08
1.20381e-05
6.3238e-08
1.20397e-05
6.46754e-08
1.20421e-05
6.55299e-08
6.64907e-08
1.20448e-05
1.26462e-05
3.58886e-08
1.26324e-05
-7.62225e-08
1.26273e-05
-5.60442e-08
1.26347e-05
4.30575e-08
1.26344e-05
7.4568e-09
1.26358e-05
2.7688e-08
1.26339e-05
8.05569e-08
1.26268e-05
4.80477e-08
1.26286e-05
2.63868e-08
1.2632e-05
5.7175e-08
1.2626e-05
6.88273e-08
1.26188e-05
5.15726e-08
1.26171e-05
4.29104e-08
1.2618e-05
4.92805e-08
1.26175e-05
5.81126e-08
1.26162e-05
6.22733e-08
1.26163e-05
6.30877e-08
1.26178e-05
6.32203e-08
1.26202e-05
6.31509e-08
6.3705e-08
1.2623e-05
1.32501e-05
3.27117e-08
1.32384e-05
-6.44931e-08
1.32325e-05
-5.01829e-08
1.32378e-05
3.78044e-08
1.32379e-05
7.2948e-09
1.32407e-05
2.49471e-08
1.32394e-05
8.18562e-08
1.32311e-05
5.63052e-08
1.32313e-05
2.61781e-08
1.32366e-05
5.18572e-08
1.32328e-05
7.26633e-08
1.32247e-05
5.97075e-08
1.32213e-05
4.62494e-08
1.32223e-05
4.83348e-08
1.3223e-05
5.74028e-08
1.32225e-05
6.27404e-08
1.32224e-05
6.32069e-08
1.32236e-05
6.20591e-08
1.32258e-05
6.0884e-08
6.08897e-08
1.32286e-05
1.3883e-05
2.98977e-08
1.3873e-05
-5.45334e-08
1.3867e-05
-4.41763e-08
1.38701e-05
3.47054e-08
1.387e-05
7.4278e-09
1.38738e-05
2.10784e-08
1.3874e-05
8.1711e-08
1.38649e-05
6.53475e-08
1.38624e-05
2.87736e-08
1.3869e-05
4.51671e-08
1.38683e-05
7.33877e-08
1.38602e-05
6.77896e-08
1.38553e-05
5.12168e-08
1.38553e-05
4.82571e-08
1.3857e-05
5.57844e-08
1.38575e-05
6.21684e-08
1.38576e-05
6.31343e-08
1.38584e-05
6.123e-08
1.38604e-05
5.88873e-08
5.80793e-08
1.38632e-05
1.45462e-05
2.73351e-08
1.45375e-05
-4.58285e-08
1.45319e-05
-3.85633e-08
1.45331e-05
3.35079e-08
1.4532e-05
8.51717e-09
1.45367e-05
1.64165e-08
1.45387e-05
7.96656e-08
1.45298e-05
7.42363e-08
1.45242e-05
3.43892e-08
1.45303e-05
3.91121e-08
1.45331e-05
7.05136e-08
1.45267e-05
7.42309e-08
1.45203e-05
5.76129e-08
1.45191e-05
4.95125e-08
1.45209e-05
5.38946e-08
1.45224e-05
6.07146e-08
1.45231e-05
6.23982e-08
1.45238e-05
6.05394e-08
1.45254e-05
5.7265e-08
5.53732e-08
1.45282e-05
1.52413e-05
2.48954e-08
1.52333e-05
-3.785e-08
1.52285e-05
-3.36974e-08
1.52283e-05
3.36958e-08
1.52257e-05
1.11197e-08
1.52305e-05
1.16052e-08
1.52346e-05
7.55355e-08
1.52269e-05
8.19553e-08
1.52189e-05
4.23702e-08
1.52224e-05
3.56108e-08
1.52283e-05
6.46748e-08
1.52248e-05
7.77107e-08
1.52179e-05
6.4515e-08
1.52152e-05
5.21931e-08
1.52166e-05
5.25246e-08
1.52187e-05
5.85893e-08
1.52201e-05
6.09802e-08
1.52211e-05
5.95574e-08
1.52224e-05
5.59941e-08
5.29471e-08
1.52248e-05
1.59698e-05
2.2442e-08
1.5962e-05
-3.0094e-08
1.59581e-05
-2.97209e-08
1.59572e-05
3.45778e-08
1.59527e-05
1.55653e-08
1.59567e-05
7.58997e-09
1.5963e-05
6.93046e-08
1.59573e-05
8.76275e-08
1.59479e-05
5.17325e-08
1.59481e-05
3.54415e-08
1.59551e-05
5.76914e-08
1.59552e-05
7.76152e-08
1.59492e-05
7.04675e-08
1.59453e-05
5.61108e-08
1.59457e-05
5.21203e-08
1.59481e-05
5.61649e-08
1.59501e-05
5.90517e-08
1.59516e-05
5.8062e-08
1.59528e-05
5.47625e-08
5.0961e-08
1.59548e-05
1.67331e-05
1.9911e-08
1.67253e-05
-2.23039e-08
1.6722e-05
-2.63514e-08
1.67212e-05
3.53142e-08
1.6715e-05
2.17872e-08
1.6717e-05
5.57065e-09
1.67251e-05
6.12356e-08
1.67222e-05
9.05219e-08
1.67126e-05
6.13403e-08
1.67097e-05
3.83125e-08
1.67157e-05
5.17104e-08
1.6719e-05
7.43263e-08
1.67154e-05
7.40536e-08
1.67108e-05
6.0728e-08
1.67102e-05
5.26939e-08
1.67123e-05
5.40459e-08
1.67147e-05
5.66664e-08
1.67166e-05
5.61645e-08
1.67182e-05
5.3227e-08
4.93307e-08
1.67198e-05
1.75329e-05
1.73269e-08
1.75253e-05
-1.46342e-08
1.75218e-05
-2.29189e-08
1.7522e-05
3.51985e-08
1.75146e-05
2.91764e-08
1.75135e-05
6.6304e-09
1.75226e-05
5.2193e-08
1.75229e-05
9.01713e-08
1.75143e-05
6.99684e-08
1.7509e-05
4.35793e-08
1.75128e-05
4.79554e-08
1.7518e-05
6.91217e-08
1.75172e-05
7.48161e-08
1.75133e-05
6.46073e-08
1.75116e-05
5.4433e-08
1.75132e-05
5.24227e-08
1.75158e-05
5.41165e-08
1.7518e-05
5.39695e-08
1.75199e-05
5.13288e-08
4.77507e-08
1.75214e-05
1.83709e-05
1.47661e-08
1.83636e-05
-7.35509e-09
1.83596e-05
-1.88946e-08
1.83606e-05
3.42104e-08
1.83534e-05
3.63725e-08
1.83489e-05
1.10859e-08
1.83572e-05
4.39229e-08
1.83609e-05
8.65029e-08
1.83543e-05
7.65006e-08
1.83476e-05
5.02959e-08
1.83487e-05
4.68417e-08
1.83544e-05
6.34508e-08
1.8356e-05
7.32081e-08
1.83538e-05
6.67827e-08
1.83517e-05
5.65747e-08
1.83524e-05
5.17099e-08
1.83549e-05
5.15978e-08
1.83573e-05
5.15954e-08
1.83595e-05
4.91886e-08
4.59337e-08
1.83613e-05
1.92488e-05
1.23443e-08
1.92422e-05
-6.9891e-10
1.92373e-05
-1.40606e-08
1.92389e-05
3.26526e-08
1.92329e-05
4.23852e-08
1.9226e-05
1.79813e-08
1.92318e-05
3.80861e-08
1.9238e-05
8.03053e-08
1.92341e-05