/*--------------------------------*- C++ -*----------------------------------*\
| =========                 |                                                 |
| \\      /  F ield         | OpenFOAM: The Open Source CFD Toolbox           |
|  \\    /   O peration     | Version:  3.0.1                                 |
|   \\  /    A nd           | Web:      www.OpenFOAM.org                      |
|    \\/     M anipulation  |                                                 |
\*---------------------------------------------------------------------------*/
FoamFile
{
    version     2.0;
    format      ascii;
    class       volVectorField;
    location    "0.8";
    object      U;
}
// * * * * * * * * * * * * * * * * * * * * * * * * * * * * * * * * * * * * * //

dimensions      [0 1 -1 0 0 0 0];

internalField   nonuniform List<vector> 
9600
(
(0.879578 -0.00100785 0)
(1.11749 -0.00661061 0)
(0.87326 0.00363102 0)
(1.13267 0.000527795 0)
(0.842095 0.000161222 0)
(1.15065 0.00229917 0)
(0.910251 -0.00100166 0)
(1.09978 0.00061565 0)
(0.930426 0.00763457 0)
(1.10795 -0.00402166 0)
(0.898627 0.00771313 0)
(1.12708 -0.00961039 0)
(0.868793 -0.00615177 0)
(1.14884 -0.00466612 0)
(0.870669 -0.0049317 0)
(1.14478 -0.000183313 0)
(0.873288 0.000234222 0)
(1.13843 0.00102887 0)
(0.863744 0.00267177 0)
(1.13 0.0043136 0)
(0.890271 -0.00104947 0)
(1.10532 -0.0064188 0)
(0.883423 0.00335165 0)
(1.11938 0.00111047 0)
(0.859732 -0.000258616 0)
(1.13455 0.00178479 0)
(0.927527 -0.000631782 0)
(1.08554 0.000637043 0)
(0.948245 0.00730914 0)
(1.0866 -0.00329076 0)
(0.924221 0.00711306 0)
(1.09265 -0.00875203 0)
(0.904645 -0.00693283 0)
(1.10332 -0.00452885 0)
(0.921785 -0.00506088 0)
(1.08799 -7.98567e-05 0)
(0.944414 0.00046941 0)
(1.0595 0.000918135 0)
(0.966448 0.00418351 0)
(1.01256 0.00318373 0)
(0.909233 -0.00106642 0)
(1.08339 -0.00625606 0)
(0.904686 0.00309496 0)
(1.09555 0.00138529 0)
(0.892609 -0.000519576 0)
(1.10592 0.00129315 0)
(0.955358 -0.000260267 0)
(1.06182 0.000500637 0)
(0.975243 0.00715797 0)
(1.0588 -0.00284666 0)
(0.959392 0.00684589 0)
(1.05584 -0.00834741 0)
(0.950057 -0.0071804 0)
(1.05263 -0.00480608 0)
(0.973596 -0.0047422 0)
(1.03716 -0.000681891 0)
(0.992419 0.00112967 0)
(1.01924 0.000517587 0)
(1.00082 0.0048359 0)
(0.998781 0.0039493 0)
(0.932805 -0.00103855 0)
(1.05549 -0.00616089 0)
(0.932584 0.00289544 0)
(1.06693 0.0015382 0)
(0.931351 -0.000696103 0)
(1.07374 0.000822765 0)
(0.98239 7.13617e-05 0)
(1.03876 0.000356986 0)
(0.998918 0.00713004 0)
(1.03631 -0.00257795 0)
(0.987652 0.00682947 0)
(1.03004 -0.00814384 0)
(0.980384 -0.00705642 0)
(1.02115 -0.00526805 0)
(0.999138 -0.00444672 0)
(1.01613 -0.00108494 0)
(1.00769 0.00143388 0)
(1.01335 0.000408417 0)
(1.00698 0.00516494 0)
(1.00528 0.00486985 0)
(0.9565 -0.000960247 0)
(1.02772 -0.0061318 0)
(0.960076 0.00273038 0)
(1.0401 0.00158363 0)
(0.965497 -0.000808275 0)
(1.04641 0.000420116 0)
(1.00041 0.000343986 0)
(1.0227 0.000238385 0)
(1.01322 0.007107 0)
(1.02278 -0.00236045 0)
(1.00336 0.00686674 0)
(1.01611 -0.00792828 0)
(0.993188 -0.00686957 0)
(1.00675 -0.00563715 0)
(1.00524 -0.0043573 0)
(1.01015 -0.00134786 0)
(1.01065 0.00152438 0)
(1.01388 0.000380262 0)
(1.01007 0.00541866 0)
(1.00883 0.00559054 0)
(0.976404 -0.000838842 0)
(1.00582 -0.00615293 0)
(0.981392 0.00257828 0)
(1.01968 0.00155252 0)
(0.989188 -0.000896403 0)
(1.02752 0.000147902 0)
(1.00803 0.000530548 0)
(1.01348 0.000126666 0)
(1.01871 0.00706635 0)
(1.01554 -0.00216418 0)
(1.00924 0.00691529 0)
(1.00919 -0.00765145 0)
(0.996349 -0.00669031 0)
(1.00003 -0.00588601 0)
(1.00365 -0.00441634 0)
(1.0066 -0.00159921 0)
(1.01004 0.00147099 0)
(1.01278 0.000355787 0)
(1.01129 0.0055177 0)
(1.0104 0.00619108 0)
(0.990494 -0.000695349 0)
(0.992517 -0.00619667 0)
(0.994278 0.00243027 0)
(1.00688 0.00148515 0)
(1.00213 -0.000980016 0)
(1.01609 1.31542e-05 0)
(1.00849 0.000640148 0)
(1.00801 1.35102e-05 0)
(1.01846 0.0070115 0)
(1.01103 -0.00198135 0)
(1.00982 0.00696584 0)
(1.00556 -0.00733924 0)
(0.996371 -0.00650021 0)
(0.996211 -0.00606416 0)
(1.00037 -0.00451677 0)
(1.00272 -0.00187261 0)
(1.00752 0.00129158 0)
(1.01006 0.000347169 0)
(1.01002 0.00543852 0)
(1.01017 0.00671663 0)
(0.998853 -0.00055461 0)
(0.987112 -0.00623529 0)
(0.999782 0.00229005 0)
(1.00026 0.00140644 0)
(1.00719 -0.00105944 0)
(1.00935 -1.80543e-05 0)
(1.00581 0.000706836 0)
(1.00402 -0.000101692 0)
(1.01526 0.00694485 0)
(1.00753 -0.00181411 0)
(1.00826 0.00699418 0)
(1.0037 -0.00701676 0)
(0.996139 -0.00630637 0)
(0.994088 -0.00617173 0)
(0.997472 -0.00461015 0)
(0.999027 -0.00213556 0)
(1.00399 0.0010449 0)
(1.00641 0.000375675 0)
(1.00699 0.00523161 0)
(1.0081 0.00715098 0)
(1.00289 -0.000433947 0)
(0.986907 -0.00625245 0)
(1.00054 0.00216672 0)
(0.99751 0.00132427 0)
(1.00771 -0.00112595 0)
(1.00509 1.15219e-05 0)
(1.00266 0.000757969 0)
(1.00079 -0.000211232 0)
(1.0111 0.00686686 0)
(1.00474 -0.00167226 0)
(1.0062 0.00697902 0)
(1.00306 -0.0067093 0)
(0.996355 -0.0061179 0)
(0.993302 -0.0061916 0)
(0.995504 -0.0046827 0)
(0.996078 -0.00234243 0)
(1.00037 0.000783816 0)
(1.00248 0.000446174 0)
(1.00311 0.00494821 0)
(1.00471 0.00749429 0)
(1.0043 -0.000339936 0)
(0.989116 -0.00624321 0)
(0.999117 0.00206619 0)
(0.996772 0.00124201 0)
(1.00619 -0.00117025 0)
(1.00212 6.64549e-05 0)
(1.0002 0.000804533 0)
(0.998323 -0.000304265 0)
(1.0072 0.00677439 0)
(1.00275 -0.00156067 0)
(1.00435 0.00690921 0)
(1.00321 -0.00642956 0)
(0.996905 -0.00593518 0)
(0.993396 -0.00612805 0)
(0.994417 -0.00473508 0)
(0.993994 -0.00245029 0)
(0.997216 0.000528696 0)
(0.99884 0.000561873 0)
(0.999147 0.00464651 0)
(1.00077 0.00776118 0)
(1.00444 -0.000271586 0)
(0.991871 -0.00620885 0)
(0.997149 0.00198938 0)
(0.996915 0.00116208 0)
(1.0041 -0.00118799 0)
(0.999939 0.000122444 0)
(0.998636 0.000847361 0)
(0.996669 -0.000375156 0)
(1.00414 0.00666442 0)
(1.00153 -0.00147551 0)
(1.00295 0.00678228 0)
(1.0037 -0.00617262 0)
(0.997527 -0.00576342 0)
(0.993873 -0.00599746 0)
(0.99396 -0.00476416 0)
(0.992644 -0.00245436 0)
(0.994782 0.000287506 0)
(0.995838 0.000735398 0)
(0.995648 0.00438599 0)
(0.996999 0.00795475 0)
(1.00411 -0.000223488 0)
(0.994289 -0.00615461 0)
(0.995397 0.00193194 0)
(0.997352 0.00108657 0)
(1.00215 -0.00118007 0)
(0.998349 0.000166108 0)
(0.997813 0.000883894 0)
(0.995705 -0.000423486 0)
(1.00199 0.00653675 0)
(1.00088 -0.00140932 0)
(1.00196 0.0066055 0)
(1.00419 -0.00592928 0)
(0.99805 -0.00560832 0)
(0.994373 -0.00580545 0)
(0.993865 -0.00477392 0)
(0.991822 -0.00237226 0)
(0.99307 7.75357e-05 0)
(0.993595 0.000960834 0)
(0.992919 0.00420616 0)
(0.99387 0.00806614 0)
(1.0037 -0.000189779 0)
(0.996111 -0.00608607 0)
(0.994076 0.00188866 0)
(0.997798 0.00101619 0)
(1.00063 -0.00115017 0)
(0.997221 0.000192542 0)
(0.997472 0.00091194 0)
(0.995233 -0.000450822 0)
(1.00056 0.00639337 0)
(1.00056 -0.00135413 0)
(1.00127 0.0063885 0)
(1.00449 -0.00568722 0)
(0.998412 -0.00547408 0)
(0.994728 -0.00555942 0)
(0.993932 -0.00477866 0)
(0.991352 -0.00221489 0)
(0.991963 -8.09635e-05 0)
(0.992069 0.0012137 0)
(0.991018 0.00412949 0)
(0.991592 0.00809515 0)
(1.00336 -0.000165446 0)
(0.997359 -0.00600767 0)
(0.993177 0.00185547 0)
(0.99813 0.00094989 0)
(0.999573 -0.00110309 0)
(0.996461 0.00020255 0)
(0.997387 0.000930391 0)
(0.995073 -0.000458554 0)
(0.999646 0.00623632 0)
(1.00038 -0.00130131 0)
(1.00076 0.0061378 0)
(1.00456 -0.00543663 0)
(0.998627 -0.00536112 0)
(0.994912 -0.00527088 0)
(0.994049 -0.00478698 0)
(0.991117 -0.00199783 0)
(0.991317 -0.000192624 0)
(0.991143 0.00145984 0)
(0.989855 0.00416421 0)
(0.990157 0.00805836 0)
(1.0031 -0.000146389 0)
(0.998148 -0.00592298 0)
(0.992629 0.00182958 0)
(0.99832 0.000885922 0)
(0.998929 -0.00104403 0)
(0.995993 0.000200186 0)
(0.997407 0.000939546 0)
(0.995088 -0.00044882 0)
(0.999073 0.00606808 0)
(1.00026 -0.00124439 0)
(1.00037 0.00585932 0)
(1.00445 -0.00517196 0)
(0.998739 -0.00526984 0)
(0.994975 -0.00494716 0)
(0.994172 -0.00479429 0)
(0.991046 -0.00175843 0)
(0.990999 -0.000265456 0)
(0.990682 0.00166132 0)
(0.989275 0.00429726 0)
(0.989426 0.00798046 0)
(1.00293 -0.000129529 0)
(0.998609 -0.00583487 0)
(0.99235 0.00180929 0)
(0.998395 0.000823234 0)
(0.998581 -0.000978062 0)
(0.995743 0.000190351 0)
(0.99745 0.00094063 0)
(0.995189 -0.000426512 0)
(0.998739 0.00589004 0)
(1.00018 -0.00117948 0)
(1.00007 0.00555766 0)
(1.00421 -0.00488624 0)
(0.998792 -0.00520214 0)
(0.994978 -0.00459265 0)
(0.994288 -0.00480035 0)
(0.991091 -0.00151212 0)
(0.990902 -0.000277824 0)
(0.990553 0.00179827 0)
(0.989113 0.00449656 0)
(0.989212 0.00788426 0)
(1.0028 -0.000112547 0)
(0.99886 -0.0057459 0)
(0.992256 0.00179354 0)
(0.998402 0.000761173 0)
(0.998417 -0.000908802 0)
(0.995643 0.000176996 0)
(0.997486 0.000934704 0)
(0.995323 -0.000393617 0)
(0.998564 0.00570074 0)
(1.00013 -0.00110175 0)
(0.999852 0.00523342 0)
(1.00392 -0.00457677 0)
(0.99882 -0.00515657 0)
(0.994964 -0.00421765 0)
(0.994405 -0.00479684 0)
(0.991218 -0.00127654 0)
(0.990942 -0.000216374 0)
(0.990642 0.00187936 0)
(0.989223 0.00472522 0)
(0.989332 0.00779152 0)
(1.00271 -9.38775e-05 0)
(0.998992 -0.00565812 0)
(0.992278 0.00178157 0)
(0.998379 0.000699336 0)
(0.998354 -0.000838708 0)
(0.995634 0.00016319 0)
(0.997512 0.000922383 0)
(0.995462 -0.000350158 0)
(0.998486 0.0054998 0)
(1.00011 -0.00100944 0)
(0.999688 0.00488991 0)
(1.0036 -0.00424928 0)
(0.998843 -0.00512607 0)
(0.994959 -0.0038361 0)
(0.994526 -0.00476815 0)
(0.991402 -0.00108366 0)
(0.991058 -7.22393e-05 0)
(0.99086 0.00192264 0)
(0.98949 0.00494626 0)
(0.989634 0.00771904 0)
(1.00262 -7.26746e-05 0)
(0.999067 -0.00557281 0)
(0.992362 0.00177323 0)
(0.998349 0.000637877 0)
(0.99834 -0.000769668 0)
(0.99567 0.000151422 0)
(0.997531 0.000903771 0)
(0.995599 -0.000297326 0)
(0.998457 0.00528544 0)
(1.0001 -0.000899199 0)
(0.99956 0.0045309 0)
(1.00328 -0.003906 0)
(0.998871 -0.00510349 0)
(0.994968 -0.00346024 0)
(0.994653 -0.00470023 0)
(0.991625 -0.000948687 0)
(0.991214 0.000142839 0)
(0.991143 0.00194261 0)
(0.98984 0.00512844 0)
(0.990014 0.00767641 0)
(1.00254 -4.84297e-05 0)
(0.999119 -0.00549083 0)
(0.992475 0.00176848 0)
(0.998323 0.000577203 0)
(0.998349 -0.000703286 0)
(0.995725 0.000143595 0)
(0.997548 0.000877964 0)
(0.995733 -0.000235172 0)
(0.998449 0.00505742 0)
(1.0001 -0.000773995 0)
(0.999455 0.00416407 0)
(1.00296 -0.0035508 0)
(0.998908 -0.00507877 0)
(0.994992 -0.00310152 0)
(0.994783 -0.00457837 0)
(0.991879 -0.000865154 0)
(0.991388 0.000402931 0)
(0.991457 0.00195896 0)
(0.99023 0.00525531 0)
(0.990412 0.00766478 0)
(1.00246 -2.09766e-05 0)
(0.999166 -0.00541255 0)
(0.992601 0.00176701 0)
(0.9983 0.000517844 0)
(0.998367 -0.000640336 0)
(0.995787 0.000141066 0)
(0.997566 0.000843578 0)
(0.995865 -0.000163654 0)
(0.998449 0.0048141 0)
(1.00011 -0.00063709 0)
(0.999363 0.00379049 0)
(1.00265 -0.00319569 0)
(0.998952 -0.00504328 0)
(0.99503 -0.00277547 0)
(0.994913 -0.00439911 0)
(0.992158 -0.000816218 0)
(0.991573 0.000688058 0)
(0.99178 0.00199151 0)
(0.990642 0.00532294 0)
(0.9908 0.00768106 0)
(1.00237 9.84957e-06 0)
(0.999213 -0.00533838 0)
(0.992733 0.00176895 0)
(0.998282 0.000459596 0)
(0.998391 -0.00058044 0)
(0.99585 0.000144163 0)
(0.997585 0.000801145 0)
(0.995997 -8.28821e-05 0)
(0.998451 0.00455611 0)
(1.00011 -0.000490416 0)
(0.999281 0.00341263 0)
(1.00234 -0.00284689 0)
(0.999002 -0.00498839 0)
(0.995082 -0.00248917 0)
(0.995038 -0.0041687 0)
(0.992459 -0.000801478 0)
(0.991768 0.000970154 0)
(0.992103 0.00204679 0)
(0.991071 0.00533181 0)
(0.991171 0.00771537 0)
(1.00229 4.39694e-05 0)
(0.999264 -0.00526861 0)
(0.992868 0.0017744 0)
(0.998266 0.00040356 0)
(0.99842 -0.000524943 0)
(0.995913 0.00015574 0)
(0.997606 0.000748219 0)
(0.99613 8.92571e-06 0)
(0.998454 0.00428751 0)
(1.00011 -0.000339723 0)
(0.999206 0.00304416 0)
(1.00203 -0.00251418 0)
(0.999055 -0.00490189 0)
(0.995148 -0.00223891 0)
(0.995158 -0.00388818 0)
(0.992778 -0.000807655 0)
(0.991975 0.00124107 0)
(0.992421 0.00212877 0)
(0.991516 0.00528502 0)
(0.991528 0.0077504 0)
(1.0022 8.1574e-05 0)
(0.999319 -0.00520345 0)
(0.993007 0.00178211 0)
(0.998252 0.000351691 0)
(0.998452 -0.000476296 0)
(0.995976 0.000178936 0)
(0.997631 0.000681284 0)
(0.996264 0.00011114 0)
(0.998458 0.00401337 0)
(1.0001 -0.00019191 0)
(0.99914 0.00269593 0)
(1.00173 -0.00221201 0)
(0.999109 -0.00477657 0)
(0.99523 -0.00202483 0)
(0.99527 -0.00356322 0)
(0.993113 -0.000814405 0)
(0.992197 0.00149951 0)
(0.992729 0.00224141 0)
(0.991976 0.00518784 0)
(0.991879 0.00776919 0)
(1.00211 0.00012224 0)
(0.999377 -0.00514176 0)
(0.993149 0.00179112 0)
(0.99824 0.000304406 0)
(0.998489 -0.000435855 0)
(0.99604 0.000214087 0)
(0.99766 0.000600847 0)
(0.996399 0.000221444 0)
(0.998465 0.00373821 0)
(1.0001 -5.52425e-05 0)
(0.99908 0.00237526 0)
(1.00144 -0.00194367 0)
(0.999163 -0.00461603 0)
(0.995328 -0.00184613 0)
(0.995376 -0.00321422 0)
(0.99346 -0.000811984 0)
(0.992439 0.00173639 0)
(0.993025 0.00238579 0)
(0.992448 0.00504871 0)
(0.992234 0.00775324 0)
(1.00202 0.000165875 0)
(0.999438 -0.00508316 0)
(0.993295 0.00180143 0)
(0.998229 0.00026275 0)
(0.998531 -0.000405854 0)
(0.996105 0.000263096 0)
(0.997694 0.00050865 0)
(0.996536 0.000334483 0)
(0.998474 0.00346818 0)
(1.00009 6.3077e-05 0)
(0.999027 0.00209197 0)
(1.00116 -0.00170752 0)
(0.999215 -0.00443118 0)
(0.995442 -0.00168847 0)
(0.995477 -0.00284769 0)
(0.993818 -0.000796689 0)
(0.992702 0.00194317 0)
(0.993305 0.00256002 0)
(0.992927 0.00488067 0)
(0.992604 0.00768252 0)
(1.00192 0.000212221 0)
(0.999504 -0.00502739 0)
(0.993446 0.00181173 0)
(0.998219 0.000230536 0)
(0.998579 -0.000388449 0)
(0.996171 0.000327764 0)
(0.997733 0.00040419 0)
(0.996674 0.000447768 0)
(0.998486 0.00320907 0)
(1.00008 0.000156432 0)
(0.99898 0.00184873 0)
(1.00089 -0.0015006 0)
(0.999266 -0.00422121 0)
(0.995574 -0.00154021 0)
(0.995575 -0.00246365 0)
(0.994182 -0.000765222 0)
(0.99299 0.00211463 0)
(0.993569 0.00276404 0)
(0.993405 0.00470378 0)
(0.992999 0.00753993 0)
(1.00183 0.000260733 0)
(0.999573 -0.00497322 0)
(0.993603 0.00181756 0)
(0.998207 0.000210117 0)
(0.998633 -0.000383722 0)
(0.996237 0.000408828 0)
(0.997778 0.000290441 0)
(0.996815 0.000555678 0)
(0.998499 0.00296646 0)
(1.00007 0.000220403 0)
(0.99894 0.0016404 0)
(1.00063 -0.00131327 0)
(0.999317 -0.00399806 0)
(0.995724 -0.00139848 0)
(0.995671 -0.00207001 0)
(0.994549 -0.000712236 0)
(0.993307 0.00224102 0)
(0.993817 0.00299106 0)
(0.993871 0.00454079 0)
(0.993428 0.0073135 0)
(1.00173 0.000311674 0)
(0.999646 -0.0049212 0)
(0.993766 0.00181831 0)
(0.998196 0.000202796 0)
(0.998693 -0.000393789 0)
(0.996304 0.000504552 0)
(0.997828 0.000174587 0)
(0.99696 0.000652603 0)
(0.998514 0.00274886 0)
(1.00006 0.000250885 0)
(0.998906 0.00146261 0)
(1.00038 -0.00113426 0)
(0.999367 -0.00377059 0)
(0.995894 -0.00125527 0)
(0.995766 -0.00166742 0)
(0.994913 -0.000638881 0)
(0.993654 0.00231226 0)
(0.994054 0.00322555 0)
(0.994313 0.00441874 0)
(0.993892 0.00701036 0)
(1.00164 0.000363402 0)
(0.999722 -0.00486855 0)
(0.993937 0.00181148 0)
(0.998184 0.000212584 0)
(0.99876 -0.000420828 0)
(0.996372 0.000613943 0)
(0.997883 5.56724e-05 0)
(0.997109 0.000731141 0)
(0.998529 0.00256753 0)
(1.00005 0.000249701 0)
(0.998882 0.00131404 0)
(1.00015 -0.000952325 0)
(0.999418 -0.00354089 0)
(0.996085 -0.00111458 0)
(0.99586 -0.00125824 0)
(0.995267 -0.000535422 0)
(0.994033 0.0023324 0)
(0.994289 0.0034503 0)
(0.994719 0.00435825 0)
(0.994383 0.00665573 0)
(1.00154 0.000415724 0)
(0.999802 -0.00481136 0)
(0.994116 0.00178918 0)
(0.998171 0.000244081 0)
(0.998833 -0.000465236 0)
(0.996441 0.000735713 0)
(0.997941 -6.03111e-05 0)
(0.997265 0.000777935 0)
(0.998546 0.0024247 0)
(1.00004 0.000223727 0)
(0.998868 0.00118328 0)
(0.999922 -0.000758959 0)
(0.999468 -0.00330977 0)
(0.996299 -0.000985071 0)
(0.995958 -0.00085823 0)
(0.995605 -0.000406716 0)
(0.99444 0.00230284 0)
(0.994533 0.00364188 0)
(0.995083 0.00436379 0)
(0.994885 0.00628697 0)
(1.00145 0.000468181 0)
(0.999885 -0.0047502 0)
(0.994305 0.00175208 0)
(0.998158 0.000300922 0)
(0.998914 -0.000523895 0)
(0.996511 0.000861036 0)
(0.998 -0.000160328 0)
(0.99743 0.000790226 0)
(0.998562 0.00231871 0)
(1.00003 0.000181135 0)
(0.998869 0.00105949 0)
(0.99971 -0.000552824 0)
(0.999517 -0.00306392 0)
(0.996536 -0.000870486 0)
(0.99606 -0.000464096 0)
(0.995921 -0.000251139 0)
(0.994874 0.0022335 0)
(0.994798 0.00377921 0)
(0.995404 0.00442552 0)
(0.995375 0.00595317 0)
(1.00136 0.000519299 0)
(0.999971 -0.004683 0)
(0.994503 0.00169644 0)
(0.998145 0.000378773 0)
(0.999002 -0.000591239 0)
(0.996583 0.000983169 0)
(0.998058 -0.000234931 0)
(0.997605 0.000760503 0)
(0.99858 0.00224779 0)
(1.00002 0.000135047 0)
(0.998886 0.000939181 0)
(0.999513 -0.00033182 0)
(0.999562 -0.00279751 0)
(0.996797 -0.000781132 0)
(0.996174 -8.42617e-05 0)
(0.99621 -5.90921e-05 0)
(0.995323 0.00214168 0)
(0.995095 0.00384749 0)
(0.995692 0.0045155 0)
(0.995832 0.00569598 0)
(1.00126 0.000568114 0)
(1.00006 -0.00460665 0)
(0.994713 0.00161655 0)
(0.998131 0.000480884 0)
(0.999097 -0.000668527 0)
(0.99666 0.00109765 0)
(0.998113 -0.000274753 0)
(0.997789 0.000688949 0)
(0.998602 0.00220024 0)
(1.00001 9.89534e-05 0)
(0.998924 0.000812436 0)
(0.999334 -0.00010144 0)
(0.999599 -0.00250473 0)
(0.99708 -0.000721891 0)
(0.996304 0.000259039 0)
(0.99647 0.000169043 0)
(0.995779 0.00204817 0)
(0.995428 0.00385268 0)
(0.995964 0.00459925 0)
(0.996243 0.00552584 0)
(1.00117 0.000613967 0)
(1.00015 -0.00451766 0)
(0.994935 0.00151055 0)
(0.998116 0.000602851 0)
(0.999198 -0.000747711 0)
(0.996743 0.00119415 0)
(0.998162 -0.000275019 0)
(0.997983 0.000578816 0)
(0.99863 0.00216732 0)
(1 8.42098e-05 0)
(0.998982 0.000674473 0)
(0.999177 0.000125221 0)
(0.999623 -0.00218143 0)
(0.99738 -0.0006831 0)
(0.99646 0.000557249 0)
(0.996702 0.000436492 0)
(0.996231 0.00196997 0)
(0.995798 0.00380803 0)
(0.996234 0.00464948 0)
(0.996605 0.00541802 0)
(1.00108 0.000654976 0)
(1.00023 -0.00441344 0)
(0.995169 0.00138035 0)
(0.998103 0.000738356 0)
(0.999302 -0.000821727 0)
(0.996834 0.00126725 0)
(0.998204 -0.000231129 0)
(0.998185 0.000438816 0)
(0.998668 0.00213755 0)
(0.999979 0.00010037 0)
(0.99906 0.000528223 0)
(0.999048 0.000338659 0)
(0.999632 -0.00182529 0)
(0.997692 -0.000650469 0)
(0.996647 0.00079655 0)
(0.996909 0.000729722 0)
(0.996667 0.0019154 0)
(0.9962 0.00372286 0)
(0.996515 0.00466467 0)
(0.996929 0.00534482 0)
(1.00099 0.000690286 0)
(1.00032 -0.00429403 0)
(0.995417 0.00123052 0)
(0.998092 0.000884451 0)
(0.999409 -0.00088639 0)
(0.996936 0.00130924 0)
(0.998236 -0.000142021 0)
(0.998392 0.000287585 0)
(0.99872 0.00210041 0)
(0.99995 0.000156263 0)
(0.999156 0.000381732 0)
(0.998954 0.000524449 0)
(0.999625 -0.00143967 0)
(0.998005 -0.000609429 0)
(0.996871 0.000968038 0)
(0.997098 0.00103313 0)
(0.997078 0.00189799 0)
(0.996628 0.00360253 0)
(0.996817 0.00464586 0)
(0.997227 0.00528286 0)
(1.00091 0.00071921 0)
(1.0004 -0.00415498 0)
(0.995678 0.00106187 0)
(0.998083 0.00102922 0)
(0.999515 -0.000929661 0)
(0.997051 0.00131734 0)
(0.998259 -2.12015e-05 0)
(0.998601 0.000134149 0)
(0.998789 0.00204338 0)
(0.999912 0.00026441 0)
(0.999265 0.000242434 0)
(0.998899 0.000662915 0)
(0.999605 -0.00104239 0)
(0.998308 -0.000541929 0)
(0.997132 0.00107789 0)
(0.99728 0.00133002 0)
(0.997455 0.00193125 0)
(0.997074 0.00345384 0)
(0.997144 0.00458355 0)
(0.99751 0.00521373 0)
(1.00083 0.000740575 0)
(1.00048 -0.00399372 0)
(0.995951 0.000875877 0)
(0.998078 0.00116721 0)
(0.999619 -0.000950365 0)
(0.997179 0.00129387 0)
(0.998273 0.000125424 0)
(0.998808 -1.53595e-06 0)
(0.998881 0.00195515 0)
(0.999868 0.000416636 0)
(0.999381 0.000130864 0)
(0.998887 0.000746415 0)
(0.999581 -0.000652978 0)
(0.998596 -0.00043989 0)
(0.997429 0.0011333 0)
(0.997466 0.00159228 0)
(0.997791 0.00201608 0)
(0.997522 0.00330133 0)
(0.9975 0.00447691 0)
(0.997793 0.00513209 0)
(1.00075 0.000754542 0)
(1.00055 -0.0038101 0)
(0.996235 0.000675396 0)
(0.99808 0.00129052 0)
(0.999718 -0.00094568 0)
(0.997322 0.00123908 0)
(0.998281 0.00029641 0)
(0.999006 -0.00010907 0)
(0.998996 0.00183443 0)
(0.99982 0.000587541 0)
(0.999494 6.17084e-05 0)
(0.998917 0.00077686 0)
(0.999559 -0.000288236 0)
(0.99886 -0.000301513 0)
(0.997754 0.00115008 0)
(0.997669 0.00180229 0)
(0.99809 0.00214179 0)
(0.997958 0.00317281 0)
(0.997884 0.00432735 0)
(0.998085 0.00502802 0)
(1.00067 0.000758435 0)
(1.00062 -0.00359681 0)
(0.996527 0.000461222 0)
(0.998088 0.00139109 0)
(0.99981 -0.000910142 0)
(0.997479 0.00115633 0)
(0.998284 0.000476831 0)
(0.999191 -0.000182436 0)
(0.999136 0.0016845 0)
(0.999774 0.000763252 0)
(0.999598 4.54036e-05 0)
(0.998987 0.00077358 0)
(0.999549 3.95602e-05 0)
(0.999098 -0.000127541 0)
(0.998099 0.00114894 0)
(0.997898 0.00195656 0)
(0.99836 0.00228766 0)
(0.998366 0.00309127 0)
(0.998285 0.00415439 0)
(0.998394 0.00489463 0)
(1.0006 0.000752151 0)
(1.00067 -0.00335466 0)
(0.996825 0.000238418 0)
(0.998106 0.0014619 0)
(0.999891 -0.000844226 0)
(0.997648 0.00105131 0)
(0.998286 0.000655168 0)
(0.999358 -0.000208559 0)
(0.999298 0.00151078 0)
(0.999737 0.000927409 0)
(0.999689 8.74564e-05 0)
(0.999089 0.000752055 0)
(0.999558 0.000329732 0)
(0.999309 7.06614e-05 0)
(0.998452 0.00114141 0)
(0.998157 0.00205582 0)
(0.998613 0.00242397 0)
(0.99874 0.0030543 0)
(0.998688 0.00398619 0)
(0.998719 0.00473451 0)
(1.00054 0.000737035 0)
(1.00071 -0.00308929 0)
(0.997124 1.73859e-05 0)
(0.998136 0.00150053 0)
(0.999962 -0.000753527 0)
(0.997829 0.000937814 0)
(0.998289 0.000819385 0)
(0.999503 -0.000185925 0)
(0.999477 0.00132798 0)
(0.999715 0.00106756 0)
(0.999764 0.00017506 0)
(0.999218 0.000722916 0)
(0.999591 0.000576156 0)
(0.999494 0.000290577 0)
(0.998805 0.00114233 0)
(0.998446 0.00210759 0)
(0.998859 0.0025393 0)
(0.999081 0.00304796 0)
(0.999082 0.00383781 0)
(0.999055 0.00455824 0)
(1.00047 0.000711824 0)
(1.00074 -0.00280545 0)
(0.997421 -0.000198572 0)
(0.998177 0.00150269 0)
(1.00002 -0.000639085 0)
(0.998018 0.00082028 0)
(0.998299 0.000959023 0)
(0.999623 -0.00012067 0)
(0.999669 0.00115267 0)
(0.999712 0.00117229 0)
(0.999823 0.000296437 0)
(0.999363 0.000703216 0)
(0.999653 0.000772018 0)
(0.999656 0.000527828 0)
(0.999144 0.00116174 0)
(0.998762 0.00210632 0)
(0.999112 0.00262326 0)
(0.999393 0.00306454 0)
(0.999456 0.00371896 0)
(0.999395 0.00438608 0)
(1.00042 0.000678062 0)
(1.00076 -0.00251662 0)
(0.997709 -0.000397682 0)
(0.998232 0.00146385 0)
(1.00007 -0.000507542 0)
(0.998209 0.000708459 0)
(0.998318 0.00106767 0)
(0.999718 -2.42312e-05 0)
(0.999866 0.000999303 0)
(0.999731 0.00124042 0)
(0.999869 0.000435251 0)
(0.999516 0.000698462 0)
(0.999745 0.000923933 0)
(0.999803 0.00076886 0)
(0.999458 0.00121798 0)
(0.999095 0.00207236 0)
(0.999382 0.00266251 0)
(0.999685 0.00308434 0)
(0.999807 0.00362763 0)
(0.999734 0.00421986 0)
(1.00036 0.000637976 0)
(1.00076 -0.00222898 0)
(0.997986 -0.000565617 0)
(0.998301 0.00138757 0)
(1.0001 -0.000366836 0)
(0.9984 0.000611733 0)
(0.998346 0.00114366 0)
(0.99979 9.8581e-05 0)
(1.00006 0.000880358 0)
(0.999772 0.00128986 0)
(0.999904 0.000580778 0)
(0.99967 0.000700848 0)
(0.999866 0.0010326 0)
(0.999943 0.000993569 0)
(0.99974 0.00130783 0)
(0.99943 0.00203643 0)
(0.99967 0.00265332 0)
(0.999967 0.00308807 0)
(1.00013 0.00356126 0)
(1.00006 0.00406843 0)
(1.00031 0.000593702 0)
(1.00075 -0.00195188 0)
(0.998247 -0.000688302 0)
(0.998384 0.00127517 0)
(1.00013 -0.000226609 0)
(0.998585 0.000539637 0)
(0.998385 0.00119328 0)
(0.999843 0.000229068 0)
(1.00025 0.000789662 0)
(0.999833 0.0013279 0)
(0.999927 0.000732543 0)
(0.999818 0.000713832 0)
(1.00001 0.00110154 0)
(1.00009 0.00119322 0)
(0.99999 0.00142394 0)
(0.999754 0.00201611 0)
(0.999972 0.00260418 0)
(1.00025 0.00305696 0)
(1.00044 0.00350044 0)
(1.00038 0.00393918 0)
(1.00027 0.000547394 0)
(1.00072 -0.00169347 0)
(0.998489 -0.000761595 0)
(0.998477 0.0011349 0)
(1.00016 -0.000102669 0)
(0.998763 0.000495686 0)
(0.998432 0.0012233 0)
(0.999879 0.000355249 0)
(1.00043 0.00072279 0)
(0.999915 0.00135357 0)
(0.999941 0.000890592 0)
(0.999953 0.000745831 0)
(1.00019 0.00112863 0)
(1.00024 0.00135797 0)
(1.00021 0.00156621 0)
(1.00005 0.0020237 0)
(1.00027 0.00254566 0)
(1.00055 0.00299106 0)
(1.00074 0.00342544 0)
(1.00067 0.00382702 0)
(1.00023 0.00050076 0)
(1.00069 -0.00145664 0)
(0.998709 -0.000791402 0)
(0.998578 0.000982227 0)
(1.00018 -5.49774e-06 0)
(0.998932 0.000476696 0)
(0.998485 0.00124518 0)
(0.999898 0.000467503 0)
(1.00061 0.000670709 0)
(1.00002 0.001371 0)
(0.999948 0.00106408 0)
(1.00006 0.000807279 0)
(1.00038 0.00112016 0)
(1.00041 0.00146589 0)
(1.00042 0.00170801 0)
(1.00032 0.00205747 0)
(1.00056 0.00249775 0)
(1.00084 0.00290274 0)
(1.00104 0.00332253 0)
(1.00095 0.00371653 0)
(1.00019 0.000455398 0)
(1.00065 -0.00124407 0)
(0.998907 -0.000784046 0)
(0.998682 0.000831439 0)
(1.0002 6.09847e-05 0)
(0.999096 0.000470237 0)
(0.998541 0.00127144 0)
(0.9999 0.000571261 0)
(1.00077 0.000618312 0)
(1.00014 0.00137282 0)
(0.999952 0.00124578 0)
(1.00014 0.000906962 0)
(1.00056 0.00110476 0)
(1.00061 0.00151687 0)
(1.00061 0.00182967 0)
(1.00055 0.00212206 0)
(1.00082 0.00246814 0)
(1.00112 0.00281259 0)
(1.00134 0.00319105 0)
(1.00124 0.00358514 0)
(1.00016 0.000413821 0)
(1.0006 -0.00105854 0)
(0.999082 -0.00074952 0)
(0.998788 0.000699888 0)
(1.00023 9.5085e-05 0)
(0.999256 0.000464829 0)
(0.998602 0.00131061 0)
(0.999882 0.000680485 0)
(1.00092 0.00056355 0)
(1.00029 0.00134883 0)
(0.999963 0.00142377 0)
(1.00018 0.00104666 0)
(1.00074 0.00110089 0)
(1.00084 0.00150896 0)
(1.00082 0.0019088 0)
(1.00076 0.0021991 0)
(1.00105 0.00246413 0)
(1.00138 0.00274223 0)
(1.00163 0.00305869 0)
(1.00152 0.0034317 0)
(1.00013 0.000375633 0)
(1.00055 -0.000897418 0)
(0.999238 -0.00069411 0)
(0.998889 0.000593052 0)
(1.00026 0.000103653 0)
(0.999419 0.000447802 0)
(0.998669 0.00135244 0)
(0.999841 0.000804032 0)
(1.00105 0.000515663 0)
(1.00048 0.0012866 0)
(0.999992 0.00158978 0)
(1.00019 0.00123568 0)
(1.00088 0.00113278 0)
(1.00107 0.00146781 0)
(1.00105 0.00193226 0)
(1.00096 0.00225801 0)
(1.00125 0.00247842 0)
(1.0016 0.00268708 0)
(1.0019 0.00293966 0)
(1.00181 0.00326811 0)
(1.00011 0.000341702 0)
(1.00051 -0.000759906 0)
(0.999376 -0.000627596 0)
(0.998983 0.00051536 0)
(1.0003 0.000101415 0)
(0.999585 0.000407372 0)
(0.998749 0.00138312 0)
(0.999779 0.000956653 0)
(1.00114 0.00049264 0)
(1.00069 0.00116527 0)
(1.00006 0.00170841 0)
(1.00017 0.00145512 0)
(1.00096 0.00121282 0)
(1.00129 0.00143039 0)
(1.0013 0.00190066 0)
(1.00116 0.00228692 0)
(1.00142 0.00250187 0)
(1.00178 0.00265203 0)
(1.00213 0.00283786 0)
(1.00208 0.00311467 0)
(1.00009 0.000312854 0)
(1.00046 -0.000646928 0)
(0.999501 -0.000555587 0)
(0.99907 0.000466421 0)
(1.00032 9.94608e-05 0)
(0.999756 0.000347573 0)
(0.998849 0.00139086 0)
(0.999701 0.00112778 0)
(1.0012 0.000519686 0)
(1.00092 0.00101105 0)
(1.00018 0.00175254 0)
(1.00014 0.00167953 0)
(1.001 0.00135059 0)
(1.00148 0.00141501 0)
(1.00156 0.00182833 0)
(1.00139 0.00226682 0)
(1.00158 0.00251286 0)
(1.00194 0.00263595 0)
(1.00233 0.00275173 0)
(1.00232 0.00297705 0)
(1.00007 0.000286128 0)
(1.00042 -0.00054826 0)
(0.999617 -0.00048646 0)
(0.999151 0.000443208 0)
(1.00034 0.000106182 0)
(0.99993 0.000277593 0)
(0.998978 0.00136742 0)
(0.99962 0.00129858 0)
(1.00119 0.000613784 0)
(1.00114 0.00086445 0)
(1.00036 0.00169774 0)
(1.00013 0.00187279 0)
(1.00098 0.00154333 0)
(1.00162 0.00144592 0)
(1.00182 0.00175635 0)
(1.00163 0.00219687 0)
(1.00175 0.00248894 0)
(1.00206 0.0026224 0)
(1.00249 0.00268293 0)
(1.00254 0.00284413 0)
(1.00006 0.00026253 0)
(1.00037 -0.00046085 0)
(0.999726 -0.000424834 0)
(0.999228 0.000440902 0)
(1.00035 0.000131531 0)
(1.0001 0.000202912 0)
(0.999139 0.0013105 0)
(0.999551 0.00145301 0)
(1.00114 0.000766911 0)
(1.00133 0.000764338 0)
(1.00059 0.00155776 0)
(1.00016 0.00199106 0)
(1.00093 0.00174775 0)
(1.00169 0.00153229 0)
(1.00204 0.00170663 0)
(1.00189 0.00210276 0)
(1.00195 0.00242341 0)
(1.00218 0.00259121 0)
(1.00261 0.00263486 0)
(1.00273 0.00271926 0)
(1.00005 0.000238939 0)
(1.00033 -0.000376283 0)
(0.999829 -0.000374412 0)
(0.999304 0.000451466 0)
(1.00035 0.000182972 0)
(1.00027 0.000132493 0)
(0.999334 0.00120952 0)
(0.999508 0.00157783 0)
(1.00105 0.000951791 0)
(1.00147 0.000735754 0)
(1.00086 0.00138776 0)
(1.00027 0.00200968 0)
(1.00088 0.00193323 0)
(1.00171 0.0016645 0)
(1.00221 0.00169317 0)
(1.00213 0.00201333 0)
(1.00216 0.00232846 0)
(1.00231 0.00252368 0)
(1.0027 0.00258898 0)
(1.00287 0.00261451 0)
(1.00005 0.000213515 0)
(1.0003 -0.000288501 0)
(0.999927 -0.000335777 0)
(0.999384 0.00046436 0)
(1.00034 0.000263233 0)
(1.00042 8.54337e-05 0)
(0.99956 0.00107265 0)
(0.999507 0.00165302 0)
(1.00093 0.00115091 0)
(1.00155 0.000776705 0)
(1.00113 0.00123409 0)
(1.00045 0.00192768 0)
(1.00086 0.00206309 0)
(1.00167 0.00181351 0)
(1.00233 0.00172377 0)
(1.00235 0.00194219 0)
(1.00237 0.00223011 0)
(1.00246 0.00242751 0)
(1.00278 0.00252145 0)
(1.00297 0.00253191 0)
(1.00004 0.000187371 0)
(1.00026 -0.00020202 0)
(1.00002 -0.000296173 0)
(0.999471 0.000465231 0)
(1.00031 0.000367725 0)
(1.00053 7.63016e-05 0)
(0.999808 0.000920449 0)
(0.999557 0.00166426 0)
(1.0008 0.00133907 0)
(1.00156 0.000886765 0)
(1.00137 0.00112591 0)
(1.00068 0.00178986 0)
(1.0009 0.00210174 0)
(1.00162 0.00194914 0)
(1.00238 0.00178856 0)
(1.00253 0.0018926 0)
(1.00257 0.00213933 0)
(1.00261 0.00232638 0)
(1.00288 0.00242639 0)
(1.00304 0.00245592 0)
(1.00004 0.000161262 0)
(1.00022 -0.000118122 0)
(1.0001 -0.000252325 0)
(0.999567 0.000451914 0)
(1.00028 0.000476798 0)
(1.00062 0.000125148 0)
(1.00006 0.000770713 0)
(0.999661 0.00160901 0)
(1.00069 0.00148697 0)
(1.00152 0.00103646 0)
(1.00156 0.00108164 0)
(1.00094 0.00164458 0)
(1.001 0.00205428 0)
(1.00158 0.00203498 0)
(1.00238 0.00186829 0)
(1.00266 0.00187102 0)
(1.00275 0.00205217 0)
(1.00276 0.0022323 0)
(1.00298 0.00231709 0)
(1.0031 0.0023629 0)
(1.00005 0.000135092 0)
(1.00018 -3.97315e-05 0)
(1.00017 -0.000199247 0)
(0.999671 0.000429528 0)
(1.00026 0.000570241 0)
(1.00067 0.000225008 0)
(1.0003 0.000654468 0)