/*--------------------------------*- C++ -*----------------------------------*\
| =========                 |                                                 |
| \\      /  F ield         | OpenFOAM: The Open Source CFD Toolbox           |
|  \\    /   O peration     | Version:  3.0.1                                 |
|   \\  /    A nd           | Web:      www.OpenFOAM.org                      |
|    \\/     M anipulation  |                                                 |
\*---------------------------------------------------------------------------*/
FoamFile
{
    version     2.0;
    format      ascii;
    class       volScalarField;
    location    "2";
    object      p;
}
// * * * * * * * * * * * * * * * * * * * * * * * * * * * * * * * * * * * * * //

dimensions      [0 2 -2 0 0 0 0];

internalField   nonuniform List<scalar> 
9600
(
3.37971e-11
-0.000466908
-0.000499343
-0.000153676
-0.0015124
-0.00123318
0.000938639
0.000131437
-0.000514432
-0.000484508
-0.000414916
-0.00196848
-0.00245554
-0.00151921
-0.00233656
-0.00131251
-0.00130437
8.81685e-05
0.000335545
0.00272052
1.0294e-06
-0.000466471
-0.000498587
-0.000168914
-0.00150368
-0.00121747
0.000905332
0.000124861
-0.000511764
-0.000501816
-0.000406047
-0.00197906
-0.00243712
-0.00152469
-0.00232839
-0.00132073
-0.00128312
1.91074e-05
0.000379669
0.002518
2.00626e-06
-0.000466318
-0.000500025
-0.000185683
-0.00149103
-0.00120385
0.000873501
0.00011774
-0.000512974
-0.000523106
-0.000400337
-0.00199096
-0.0024141
-0.00153276
-0.00231023
-0.00133317
-0.00125855
-6.19635e-05
0.000413632
0.0022517
2.61769e-06
-0.000466994
-0.000502415
-0.000201293
-0.00147706
-0.00119265
0.000842889
0.000108602
-0.000518284
-0.000546419
-0.000401217
-0.00200232
-0.00238886
-0.00154095
-0.00228507
-0.00135229
-0.00124111
-0.000139672
0.000422772
0.00199145
2.87543e-06
-0.000468601
-0.000504779
-0.00021525
-0.00146105
-0.0011833
0.000812851
9.66486e-05
-0.00052536
-0.00057159
-0.000404578
-0.0020116
-0.00236084
-0.00154978
-0.00225705
-0.00137739
-0.00122741
-0.000216637
0.000407159
0.00174446
2.80507e-06
-0.000471124
-0.000506777
-0.000226828
-0.00144289
-0.00117604
0.000783378
8.28792e-05
-0.000532644
-0.000597515
-0.000408124
-0.00201851
-0.00233102
-0.00155957
-0.00222769
-0.00140597
-0.00121401
-0.000292606
0.000368011
0.00151128
2.45076e-06
-0.000474466
-0.000508061
-0.000236098
-0.00142302
-0.00117023
0.000754914
6.80259e-05
-0.000539416
-0.000623577
-0.000411008
-0.00202354
-0.00230027
-0.00156975
-0.00219795
-0.00143532
-0.00120445
-0.000367667
0.000306989
0.00129062
1.89129e-06
-0.000478458
-0.000508481
-0.00024374
-0.0014018
-0.00116488
0.000727277
5.22681e-05
-0.000545515
-0.000649638
-0.000412939
-0.00202727
-0.00226886
-0.00157975
-0.00216882
-0.00146283
-0.00120392
-0.000440557
0.000227742
0.00107849
1.21775e-06
-0.000482951
-0.000508147
-0.000250513
-0.0013794
-0.0011594
0.000699835
3.57225e-05
-0.000551074
-0.000675762
-0.000413924
-0.00203006
-0.00223715
-0.00158908
-0.00214102
-0.00148724
-0.0012129
-0.000508977
0.000133186
0.000868181
5.0206e-07
-0.000487864
-0.00050725
-0.000257001
-0.00135593
-0.00115362
0.000672013
1.85452e-05
-0.000556355
-0.000702074
-0.000414124
-0.00203203
-0.0022058
-0.00159697
-0.00211553
-0.00150812
-0.00123183
-0.00057157
2.42465e-05
0.000654263
-2.12207e-07
-0.000493157
-0.000505942
-0.000263604
-0.00133145
-0.00114756
0.000643432
8.69269e-07
-0.00056164
-0.000728663
-0.000413762
-0.0020333
-0.00217548
-0.00160244
-0.00209378
-0.00152501
-0.00126034
-0.000629884
-9.68124e-05
0.000434562
-9.01408e-07
-0.000498809
-0.000504306
-0.000270572
-0.00130601
-0.00114126
0.000613851
-1.71966e-05
-0.000567192
-0.000755512
-0.000413144
-0.00203385
-0.00214692
-0.00160461
-0.00207697
-0.00153752
-0.00129751
-0.000686718
-0.000224976
0.000208413
-1.55191e-06
-0.000504806
-0.000502378
-0.00027804
-0.00127965
-0.00113478
0.000583112
-3.55535e-05
-0.000573249
-0.000782503
-0.000412668
-0.00203343
-0.00212096
-0.00160265
-0.00206577
-0.00154577
-0.00134416
-0.000745874
-0.000354574
-2.43619e-05
-2.15343e-06
-0.000511141
-0.000500172
-0.000286071
-0.00125242
-0.0011281
0.000551087
-5.41035e-05
-0.00058004
-0.000809428
-0.000412784
-0.00203166
-0.00209852
-0.00159581
-0.00206071
-0.00155081
-0.00139847
-0.000811868
-0.000481041
-0.000262751
-2.69574e-06
-0.000517815
-0.000497697
-0.000294688
-0.00122438
-0.00112117
0.000517662
-7.27532e-05
-0.000587793
-0.000835994
-0.000413974
-0.00202811
-0.00208041
-0.0015836
-0.002062
-0.00155448
-0.00145729
-0.000889296
-0.000601772
-0.000503956
-3.16828e-06
-0.000524832
-0.000494975
-0.000303889
-0.00119565
-0.00111389
0.000482715
-9.13857e-05
-0.000596743
-0.000861887
-0.000416712
-0.0020223
-0.00206733
-0.00156593
-0.00206928
-0.00155879
-0.0015173
-0.000981975
-0.000716696
-0.000743402
-3.55949e-06
-0.000532202
-0.000492032
-0.000313647
-0.00116635
-0.00110612
0.000446087
-0.000109844
-0.000607125
-0.000886814
-0.000421453
-0.00201385
-0.00205986
-0.00154302
-0.00208165
-0.00156615
-0.001575
-0.0010919
-0.000827611
-0.000975681
-3.85639e-06
-0.000539932
-0.000488911
-0.000323914
-0.00113662
-0.00109768
0.000407591
-0.000127949
-0.000619179
-0.000910522
-0.000428592
-0.00200242
-0.00205842
-0.00151545
-0.00209748
-0.00157987
-0.00162791
-0.0012193
-0.000937524
-0.00119525
-4.04497e-06
-0.000548028
-0.000485661
-0.000334621
-0.00110665
-0.00108838
0.000367017
-0.000145502
-0.000633114
-0.000932835
-0.000438448
-0.0019878
-0.00206312
-0.00148428
-0.00211446
-0.00160394
-0.00167483
-0.00136096
-0.00105031
-0.00139717
-4.10881e-06
-0.000556488
-0.000482351
-0.000345667
-0.00107663
-0.00107798
0.000324146
-0.000162327
-0.000649094
-0.00095364
-0.000451206
-0.00197009
-0.00207344
-0.00145137
-0.00213029
-0.0016411
-0.00171402
-0.00151217
-0.00117024
-0.00157781
-4.03215e-06
-0.000565303
-0.000479068
-0.000356922
-0.00104682
-0.00106623
0.000278783
-0.000178306
-0.000667253
-0.00097293
-0.000466667
-0.00194982
-0.00208869
-0.00141886
-0.00214316
-0.00169246
-0.00175068
-0.00166826
-0.00130127
-0.00173546
-3.8046e-06
-0.000574445
-0.000475924
-0.000368234
-0.0010175
-0.00105284
0.000230759
-0.000193378
-0.000687586
-0.000990948
-0.000484352
-0.00192769
-0.00210822
-0.00138856
-0.00215151
-0.0017583
-0.0017858
-0.00182476
-0.00144643
-0.00187071
-3.41445e-06
-0.000583875
-0.000473062
-0.000379401
-0.00098898
-0.00103754
0.000179942
-0.000207579
-0.000709893
-0.00100819
-0.000503648
-0.00190437
-0.00213141
-0.00136205
-0.00215424
-0.00183799
-0.00182167
-0.0019772
-0.00160741
-0.00198662
-2.85522e-06
-0.000593528
-0.000470666
-0.000390158
-0.00096159
-0.00102013
0.000126274
-0.000221054
-0.000733781
-0.00102537
-0.000523694
-0.00188051
-0.00215788
-0.00134096
-0.00215112
-0.0019299
-0.00186098
-0.00212096
-0.00178424
-0.00208867
-2.1388e-06
-0.000603308
-0.000468959
-0.000400218
-0.000935588
-0.00100054
6.98224e-05
-0.000234082
-0.000758621
-0.00104346
-0.000543677
-0.00185629
-0.00218746
-0.00132695
-0.00214226
-0.00203262
-0.00190646
-0.00225147
-0.00197517
-0.00218433
-1.28162e-06
-0.000613079
-0.000468232
-0.000409299
-0.000911194
-0.000978714
1.08097e-05
-0.000247196
-0.00078359
-0.00106351
-0.000563234
-0.00183168
-0.0022201
-0.00132139
-0.00212768
-0.00214465
-0.00196113
-0.00236441
-0.0021767
-0.00228258
-3.21162e-07
-0.000622654
-0.000468795
-0.000417157
-0.000888595
-0.000954647
-5.03733e-05
-0.000261145
-0.000807599
-0.00108651
-0.00058262
-0.00180635
-0.00225584
-0.00132555
-0.00210752
-0.00226394
-0.00202833
-0.00245633
-0.0023832
-0.00239351
6.76491e-07
-0.0006318
-0.000470977
-0.000423583
-0.000867915
-0.000928502
-0.000113136
-0.000276747
-0.000829334
-0.0011132
-0.000602658
-0.00177942
-0.00229496
-0.00134119
-0.00208197
-0.00238743
-0.00211127
-0.00252605
-0.00258571
-0.0025268
1.63941e-06
-0.000640239
-0.000475159
-0.000428353
-0.000849224
-0.000900655
-0.000176443
-0.000295135
-0.000847893
-0.00114389
-0.000624408
-0.00174975
-0.00233749
-0.00137038
-0.00205166
-0.00251067
-0.00221277
-0.00257612
-0.00277244
-0.00268831
2.44695e-06
-0.000647619
-0.000481675
-0.000431353
-0.000832408
-0.000871694
-0.000239029
-0.000317529
-0.00086291
-0.00117832
-0.000649596
-0.00171662
-0.00238213
-0.00141511
-0.0020183
-0.00262817
-0.00233434
-0.00261344
-0.0029314
-0.00287586
2.93962e-06
-0.000653559
-0.000490763
-0.00043269
-0.000817091
-0.000842383
-0.000299709
-0.000344736
-0.000874353
-0.00121539
-0.000680291
-0.00168019
-0.00242694
-0.00147677
-0.00198423
-0.0027344
-0.00247539
-0.00264762
-0.00305353
-0.00307737
2.95097e-06
-0.000657675
-0.000502615
-0.000432539
-0.000802816
-0.000813636
-0.00035707
-0.000377207
-0.000882993
-0.0012534
-0.000718066
-0.00164151
-0.0024702
-0.00155595
-0.00195203
-0.00282495
-0.00263257
-0.00268851
-0.00313645
-0.0032736
2.28664e-06
-0.000659605
-0.00051727
-0.000431199
-0.000789061
-0.00078644
-0.000409875
-0.000414885
-0.000890063
-0.00129074
-0.000764337
-0.00160254
-0.00250976
-0.00165184
-0.00192488
-0.00290332
-0.00280025
-0.00274471
-0.00318621
-0.00344561
7.43111e-07
-0.000659033
-0.000534518
-0.00042916
-0.000775115
-0.000761602
-0.000457556
-0.000457132
-0.000896961
-0.00132652
-0.000820145
-0.00156577
-0.00254327
-0.00176233
-0.00190648
-0.00295315
-0.00297166
-0.00282141
-0.00321445
-0.00357996
-1.85981e-06
-0.000655706
-0.000553971
-0.00041673
-0.000760411
-0.000739564
-0.000499813
-0.000503049
-0.000905393
-0.00136022
-0.000885553
-0.00153409
-0.00256855
-0.00188416
-0.00189971
-0.00298005
-0.00314047
-0.00291994
-0.00323278
-0.00367294
-5.67416e-06
-0.000649465
-0.000575154
-0.000417517
-0.000744783
-0.000720591
-0.00053673
-0.000551667
-0.000916805
-0.00139208
-0.000960176
-0.00151057
-0.00258344
-0.00201321
-0.00190874
-0.002986
-0.00330068
-0.0030394
-0.0032504
-0.00372987
-1.08098e-05
-0.00064026
-0.00059733
-0.000420478
-0.000728228
-0.000705036
-0.000568611
-0.000601855
-0.000932623
-0.0014228
-0.00104288
-0.00149684
-0.00258712
-0.00214524
-0.00193624
-0.00297309
-0.00344593
-0.00317884
-0.00327397
-0.00375802
-1.73219e-05
-0.000628202
-0.00061961
-0.00042599
-0.000711137
-0.00069316
-0.000595918
-0.000652455
-0.000954656
-0.00145309
-0.00113035
-0.00149373
-0.00258042
-0.00227629
-0.00198358
-0.00294573
-0.00356988
-0.0033369
-0.00330997
-0.00376283
-2.52478e-05
-0.000613399
-0.000641164
-0.000434462
-0.000694049
-0.000685143
-0.000619943
-0.000702381
-0.00098376
-0.00148235
-0.00121904
-0.00150091
-0.00256507
-0.00240237
-0.00205207
-0.00291105
-0.00366648
-0.0035081
-0.00336596
-0.00374985
-3.46094e-05
-0.000595966
-0.0006613
-0.000445984
-0.000677138
-0.000681937
-0.000642616
-0.000750462
-0.00101937
-0.0015114
-0.00130652
-0.00151776
-0.00254322
-0.00252058
-0.00214181
-0.0028773
-0.00373076
-0.0036818
-0.00344918
-0.00372863
-4.53678e-05
-0.000576092
-0.00067933
-0.000460784
-0.000660433
-0.000684198
-0.000666539
-0.000795912
-0.00105961
-0.00154153
-0.00139143
-0.00154274
-0.00251714
-0.00262847
-0.00225076
-0.00285203
-0.00376189
-0.00384485
-0.00356187
-0.00371299
-5.74668e-05
-0.000554013
-0.000694515
-0.000479074
-0.000643932
-0.000691731
-0.000695086
-0.00083879
-0.0011021
-0.00157318
-0.00147319
-0.00157435
-0.00248821
-0.00272409
-0.00237557
-0.00284165
-0.00376434
-0.00398553
-0.00369784
-0.00371688
-7.08583e-05
-0.000530005
-0.000706169
-0.000500749
-0.000627736
-0.000703813
-0.00073134
-0.000880787
-0.00114445
-0.00160544
-0.00155191
-0.00161176
-0.00245682
-0.0028071
-0.00251223
-0.00285168
-0.00374664
-0.0040962
-0.00384502
-0.00374825
-8.55513e-05
-0.00050251
-0.000713697
-0.000525725
-0.000612131
-0.000718388
-0.000777768
-0.000926664
-0.00118417
-0.00163579
-0.00162778
-0.00165459
-0.00242433
-0.00287231
-0.00265448
-0.00288613
-0.00371851
-0.00417468
-0.00399094
-0.00380628
-0.000101479
-0.00047519
-0.000716475
-0.00055431
-0.000597757
-0.000732626
-0.000835596
-0.00098
-0.00121929
-0.00166177
-0.00170148
-0.00170408
-0.0023932
-0.00291677
-0.0027949
-0.00294569
-0.00368956
-0.00422221
-0.00412594
-0.00388539
-0.000118347
-0.000447817
-0.00071386
-0.000587571
-0.000587166
-0.000744708
-0.000905143
-0.00104004
-0.00124925
-0.00168205
-0.00177384
-0.00176294
-0.00236638
-0.00294113
-0.00292606
-0.00302689
-0.00366855
-0.00424198
-0.00424266
-0.00397947
-0.000136057
-0.000420903
-0.000705886
-0.000625875
-0.00058539
-0.000755699
-0.000972075
-0.00110581
-0.00127811
-0.00169656
-0.00184367
-0.00183279
-0.00234902
-0.00294904
-0.00304071
-0.00312267
-0.00366246
-0.0042404
-0.0043349
-0.00408226
-0.00015401
-0.000395548
-0.000692817
-0.000671216
-0.000595325
-0.000756718
-0.00103056
-0.00117784
-0.00131269
-0.00170664
-0.00190751
-0.00191107
-0.0023459
-0.00294492
-0.00313333
-0.00322403
-0.00367397
-0.00422694
-0.00439885
-0.0041851
-0.000171876
-0.00037286
-0.000674754
-0.000716853
-0.00061833
-0.000753937
-0.00107829
-0.00125566
-0.00135683
-0.00171367
-0.00196034
-0.0019941
-0.00235952
-0.00293521
-0.00320418
-0.00332249
-0.00370112
-0.00421134
-0.00443558
-0.0042765
-0.000189172
-0.000353721
-0.000652444
-0.00076131
-0.000655186
-0.000752815
-0.00111315
-0.0013344
-0.00141221
-0.00172092
-0.00200078
-0.00207629
-0.00238825
-0.00292793
-0.00325657
-0.00341257
-0.00373931
-0.00419974
-0.00445117
-0.0043469
-0.000205332
-0.000338997
-0.000627133
-0.000801915
-0.00070596
-0.000758592
-0.00113434
-0.0014074
-0.00147865
-0.0017344
-0.00203021
-0.00215094
-0.00242807
-0.00292741
-0.00329508
-0.00349196
-0.00378378
-0.00419383
-0.00445343
-0.00439388
-0.000219934
-0.000329095
-0.000600839
-0.000836193
-0.000772761
-0.000775978
-0.00114309
-0.00146886
-0.0015539
-0.00175955
-0.00205094
-0.00221366
-0.00247477
-0.00293473
-0.00332469
-0.00355984
-0.0038309
-0.00419332
-0.00444791
-0.00442127
-0.000232653
-0.000324247
-0.000575997
-0.000862044
-0.000847021
-0.000808644
-0.00114396
-0.0015149
-0.00163285
-0.00179889
-0.00206913
-0.00226355
-0.00252142
-0.00294831
-0.00334888
-0.0036163
-0.00387766
-0.00419806
-0.00443734
-0.00443354
-0.000243369
-0.0003246
-0.000555609
-0.000878273
-0.000921255
-0.000858501
-0.00114438
-0.00154453
-0.00170787
-0.00185071
-0.00209282
-0.00230368
-0.00256191
-0.00296466
-0.00336943
-0.00366289
-0.00392196
-0.00420831
-0.00442449
-0.00443253
-0.000252265
-0.000329675
-0.000541773
-0.000883612
-0.000990956
-0.000924797
-0.00115259
-0.00155921
-0.00177211
-0.00191189
-0.00212571
-0.00233843
-0.00259591
-0.00297885
-0.0033852
-0.00370095
-0.00396232
-0.00422329
-0.0044133
-0.0044201
-0.000259865
-0.000339023
-0.000535429
-0.000883322
-0.00105778
-0.00100519
-0.00117446
-0.00156311
-0.00182153
-0.00197652
-0.00216785
-0.00237344
-0.00262586
-0.00298932
-0.00339395
-0.00372934
-0.0039966
-0.00424024
-0.00440703
-0.00440133
-0.000266836
-0.00035163
-0.000537342
-0.000878736
-0.00110865
-0.00109378
-0.00121315
-0.00156362
-0.00185517
-0.00203656
-0.00221755
-0.00241228
-0.002654
-0.00299796
-0.00339514
-0.0037464
-0.00402263
-0.00425527
-0.00440584
-0.00438309
-0.000273943
-0.000365446
-0.000547395
-0.000874356
-0.00114697
-0.00118226
-0.00126824
-0.00156929
-0.00187483
-0.00208582
-0.0022705
-0.00245626
-0.00268279
-0.00300532
-0.00339084
-0.00375189
-0.00403888
-0.00426472
-0.00440579
-0.00436947
-0.000281969
-0.000380238
-0.000564376
-0.000874178
-0.0011737
-0.00126406
-0.00133731
-0.00158618
-0.00188493
-0.00212189
-0.00231945
-0.00250337
-0.00271565
-0.00301294
-0.00338226
-0.00374695
-0.00404473
-0.00426673
-0.00440134
-0.004359
-0.00029168
-0.000395475
-0.000586591
-0.000880468
-0.00119237
-0.00133583
-0.00141504
-0.0016166
-0.00189283
-0.00214571
-0.00235899
-0.00254907
-0.00275247
-0.00302432
-0.00337109
-0.00373287
-0.00403994
-0.00426122
-0.00438923
-0.00434645
-0.000303734
-0.000411246
-0.000612138
-0.000894546
-0.00120765
-0.00139586
-0.00149435
-0.00165977
-0.00190496
-0.00215947
-0.00238735
-0.00258778
-0.00278844
-0.00304083
-0.0033612
-0.00371141
-0.00402425
-0.00424797
-0.00436913
-0.0043268
-0.000318627
-0.000428104
-0.000639274
-0.000916045
-0.00122438
-0.00144507
-0.00156895
-0.00171323
-0.00192515
-0.00216805
-0.00240478
-0.00261705
-0.0028192
-0.00305793
-0.00335525
-0.00368642
-0.00399811
-0.0042261
-0.00434184
-0.004298
-0.000336674
-0.00044668
-0.000667123
-0.000943888
-0.00124522
-0.001486
-0.00163569
-0.0017721
-0.00195411
-0.00217687
-0.00241241
-0.00263504
-0.00284238
-0.00307088
-0.00335025
-0.00366147
-0.00396391
-0.00419487
-0.00430771
-0.00426023
-0.000357974
-0.000467653
-0.000695561
-0.00097645
-0.00127128
-0.00152281
-0.00169443
-0.00183078
-0.00198972
-0.00218942
-0.00241441
-0.002641
-0.00285545
-0.0030776
-0.0033408
-0.00363555
-0.00392451
-0.00415414
-0.00426632
-0.00421414
-0.000382699
-0.000491871
-0.000724947
-0.00101184
-0.00130291
-0.00155903
-0.00174641
-0.00188609
-0.00202926
-0.00220583
-0.00241505
-0.00263708
-0.00285506
-0.00307588
-0.00332456
-0.00360381
-0.00387974
-0.00410364
-0.00421613
-0.00416064
-0.000410584
-0.000519782
-0.000756197
-0.00104885
-0.00133932
-0.00159714
-0.00179369
-0.0019372
-0.00206976
-0.00222479
-0.00241523
-0.00262674
-0.0028413
-0.00306118
-0.00329969
-0.00356289
-0.00382624
-0.00404237
-0.00415486
-0.00409887
-0.000441796
-0.000551485
-0.000790187
-0.00108773
-0.00137954
-0.00163825
-0.0018393
-0.001985
-0.00210922
-0.00224537
-0.0024143
-0.00261087
-0.0028166
-0.00303035
-0.00326191
-0.00351118
-0.00376161
-0.00396978
-0.00408059
-0.00402612
-0.000476506
-0.000586899
-0.000827442
-0.00112922
-0.00142318
-0.00168266
-0.00188568
-0.00203115
-0.00214716
-0.00226647
-0.00241288
-0.0025886
-0.00278121
-0.00298331
-0.00320519
-0.00344382
-0.00368195
-0.00388275
-0.0039912
-0.00393925
-0.000514799
-0.000626083
-0.00086842
-0.0011738
-0.0014704
-0.00173099
-0.0019343
-0.00207769
-0.00218447
-0.00228671
-0.00241118
-0.00256128
-0.00273429
-0.00292057
-0.00312552
-0.00335177
-0.00357897
-0.00377333
-0.0038811
-0.00383339
-0.000557077
-0.000669081
-0.00091314
-0.001222
-0.00152154
-0.00178411
-0.00198726
-0.00212623
-0.00222299
-0.00230728
-0.00240807
-0.0025303
-0.00267609
-0.00283976
-0.00302081
-0.003226
-0.00343996
-0.00362804
-0.00373817
-0.00369884
-0.000603626
-0.000716352
-0.000961553
-0.00127431
-0.00157776
-0.00184245
-0.00204678
-0.00218029
-0.00226448
-0.00233061
-0.00240487
-0.00249508
-0.00260684
-0.00273752
-0.00288641
-0.00305783
-0.00324778
-0.00342604
-0.0035412
-0.00351836
-0.000654283
-0.000768476
-0.00101389
-0.00133121
-0.00164046
-0.0019076
-0.00211391
-0.00224484
-0.00231569
-0.00236033
-0.00240425
-0.00245587
-0.00252523
-0.00261119
-0.00271567
-0.00283976
-0.00298556
-0.00313549
-0.00324434
-0.00324355
-0.000707343
-0.000823127
-0.00107165
-0.00139479
-0.00170997
-0.0019808
-0.00219066
-0.0023224
-0.00238705
-0.0024117
-0.00241651
-0.00241593
-0.00242735
-0.00245126
-0.00250011
-0.00257226
-0.00265847
-0.00274899
-0.00280965
-0.00278505
-0.000761683
-0.000880433
-0.00113598
-0.00146527
-0.00178614
-0.0020605
-0.00227765
-0.00241539
-0.00248187
-0.002503
-0.00248501
-0.00241952
-0.00231966
-0.00219171
-0.00207341
-0.00202137
-0.00206992
-0.00220624
-0.00236824
-0.00247107
-0.000820582
-0.000946421
-0.00120603
-0.00153967
-0.00186667
-0.00214576
-0.00236923
-0.00251981
-0.00259987
-0.0026307
-0.00263369
-0.00261861
-0.00257081
-0.00238961
-0.00197802
-0.00143389
-0.000911916
-0.000498849
-0.000232102
-0.000134
-0.000883887
-0.00102038
-0.00128521
-0.00162536
-0.00196029
-0.0022413
-0.00246218
-0.00261568
-0.00270843
-0.00274876
-0.0026737
-0.00240764
-0.00201804
-0.00161468
-0.00126434
-0.00097941
-0.000747063
-0.000551614
-0.000403269
-0.000355977
-0.000943221
-0.00107178
-0.0013514
-0.00171319
-0.00208464
-0.00241453
-0.00267656
-0.00282016
-0.00278058
-0.00256207
-0.00226242
-0.00196173
-0.00168539
-0.00140915
-0.001107
-0.000758598
-0.00038476
-3.64291e-05
0.000226245
0.000318477
-0.00104602
-0.00118981
-0.00142714
-0.00173043
-0.00204528
-0.00230832
-0.00248305
-0.00255074
-0.00252154
-0.00244525
-0.00236709
-0.00229564
-0.00222832
-0.00210798
-0.00184942
-0.00138904
-0.000734442
-4.52182e-05
0.000493682
0.000732095
-0.00107524
-0.00122766
-0.00153815
-0.00191607
-0.00226468
-0.00249734
-0.00259213
-0.00258073
-0.00248595
-0.00232436
-0.00211326
-0.00184702
-0.00153664
-0.00120326
-0.000848802
-0.000494921
-0.00016058
0.00012815
0.000316771
0.000337843
-0.00115886
-0.00130073
-0.00154847
-0.00186101
-0.00219321
-0.00248775
-0.00267203
-0.00270345
-0.002567
-0.0023076
-0.00202061
-0.00176265
-0.00152676
-0.00131143
-0.00108705
-0.000825081
-0.000528385
-0.000233696
-1.04673e-05
6.10502e-05
0.00519687
0.000757265
-0.00608934
-0.0110882
-0.0120225
-0.0108176
-0.00934441
-0.00805863
-0.00701516
-0.00620468
-0.00560955
-0.00526823
-0.00515497
-0.00504227
-0.00475112
-0.00438088
-0.00406901
-0.00384162
-0.00371031
-0.00360646
-0.00342168
-0.00318372
-0.0029751
-0.00280453
-0.00263723
-0.00243534
-0.00220066
-0.00198634
-0.00181374
-0.00164445
-0.00144612
-0.00123241
-0.00103876
-0.00087366
-0.0007077
-0.000523831
-0.000338974
-0.000161675
2.82721e-05
0.000240685
0.000458357
0.000672258
0.000899109
0.00113954
0.00136194
0.00156671
0.00178673
0.00201739
0.00224061
0.00247052
0.00272858
0.00299767
0.00325156
0.00351151
0.00378551
0.00405108
0.0043161
0.00460118
0.00489382
0.00518906
0.00549616
0.00580871
0.00612518
0.00644811
0.00677196
0.00710235
0.00743293
0.00777072
0.00812324
0.00848969
0.00886212
0.00923779
0.00961857
0.0100035
0.0103962
0.010801
0.0112113
0.0116333
0.0120597
0.012501
0.0129488
0.0134057
0.0138749
0.0143461
0.0148379
0.0153376
0.0158417
0.0163654
0.0168911
0.0174292
0.0179847
0.0185448
0.0191121
0.0196962
0.0202873
0.0208842
0.0215022
0.0221178
0.0226442
0.023203
0.00466659
0.000638004
-0.00599089
-0.0109459
-0.0119456
-0.0107833
-0.0093244
-0.00804468
-0.00700426
-0.0061954
-0.00560096
-0.0052602
-0.00514813
-0.00503685
-0.00474658
-0.00437678
-0.00406525
-0.00383809
-0.00370711
-0.00360374
-0.00341926
-0.00318138
-0.00297285
-0.00280244
-0.00263533
-0.00243361
-0.002199
-0.00198474
-0.00181225
-0.00164311
-0.00144489
-0.00123123
-0.00103763
-0.000872607
-0.000706737
-0.000522928
-0.000338109
-0.000160865
2.90185e-05
0.00024139
0.000459034
0.000672896
0.000899704
0.00114012
0.00136251
0.00156724
0.00178723
0.00201788
0.00224108
0.00247096
0.002729
0.00299808
0.00325195
0.00351188
0.00378587
0.00405144
0.00431643
0.0046015
0.00489413
0.00518935
0.00549645
0.00580898
0.00612544
0.00644836
0.00677221
0.00710258
0.00743316
0.00777094
0.00812345
0.00848989
0.00886232
0.00923798
0.00961875
0.0100036
0.0103964
0.0108012
0.0112114
0.0116334
0.0120599
0.0125011
0.0129489
0.0134058
0.013875
0.0143462
0.014838
0.0153377
0.0158418
0.0163655
0.0168912
0.0174293
0.0179848
0.0185449
0.0191122
0.0196962
0.0202874
0.0208843
0.0215023
0.0221179
0.0226443
0.023203
0.00410172
0.000482226
-0.00580847
-0.0106808
-0.0118074
-0.0107309
-0.00929763
-0.00802618
-0.00699057
-0.00618521
-0.00559306
-0.00525318
-0.00514135
-0.00503053
-0.00474104
-0.00437218
-0.00406146
-0.0038347
-0.00370403
-0.00360111
-0.00341696
-0.00317925
-0.00297088
-0.00280059
-0.00263361
-0.00243202
-0.00219748
-0.00198328
-0.00181091
-0.00164191
-0.00144377
-0.00123015
-0.0010366
-0.000871662
-0.00070588
-0.000522118
-0.00033734
-0.000160157
2.96711e-05
0.000242014
0.000459633
0.000673453
0.000900228
0.00114065
0.00136302
0.00156771
0.00178766
0.00201831
0.00224149
0.00247133
0.00272935
0.00299844
0.0032523
0.0035122
0.00378619
0.00405174
0.00431671
0.00460177
0.0048944
0.0051896
0.00549669
0.00580922
0.00612567
0.00644858
0.00677242
0.00710279
0.00743336
0.00777112
0.00812363
0.00849006
0.00886249
0.00923814
0.0096189
0.0100038
0.0103965
0.0108013
0.0112116
0.0116336
0.01206
0.0125012
0.012949
0.0134059
0.0138752
0.0143463
0.0148381
0.0153378
0.0158419
0.0163655
0.0168912
0.0174294
0.0179849
0.018545
0.0191123
0.0196963
0.0202874
0.0208844
0.0215024
0.022118
0.0226444
0.0232031
0.00356322
0.000331934
-0.00556667
-0.0103297
-0.011605
-0.0106483
-0.00925368
-0.00799628
-0.00696951
-0.00617103
-0.00558421
-0.00524656
-0.00513392
-0.00502186
-0.00473281
-0.00436583
-0.00405682
-0.00383066
-0.00369998
-0.00359732
-0.0034138
-0.00317677
-0.00296879
-0.00279856
-0.00263161
-0.00243017
-0.0021958
-0.0019817
-0.00180941
-0.00164049
-0.00144244
-0.00122892
-0.00103545
-0.000870598
-0.000704912
-0.000521221
-0.000336503
-0.000159389
3.03823e-05
0.000242692
0.000460278
0.00067405
0.000900793
0.00114121
0.00136356
0.00156819
0.00178812
0.00201876
0.0022419
0.00247171
0.00272972
0.00299882
0.00325266
0.00351253
0.00378652
0.00405206
0.004317
0.00460205
0.00489468
0.00518986
0.00549694
0.00580947
0.0061259
0.00644881
0.00677264
0.007103
0.00743356
0.00777131
0.00812381
0.00849024
0.00886266
0.00923831
0.00961906
0.0100039
0.0103966
0.0108015
0.0112117
0.0116337
0.0120601
0.0125014
0.0129491
0.013406
0.0138753
0.0143464
0.0148382
0.0153379
0.015842
0.0163656
0.0168913
0.0174295
0.0179849
0.0185451
0.0191124
0.0196964
0.0202875
0.0208845
0.0215025
0.0221181
0.0226445
0.0232032
0.00304899
0.000183231
-0.00530651
-0.00994821
-0.0113726
-0.0105489
-0.00919913
-0.00795739
-0.00694116
-0.00615194
-0.00557337
-0.00523973
-0.00512532
-0.00501002
-0.00472103
-0.00435721
-0.0040513
-0.00382605
-0.00369459
-0.00359143
-0.0034088
-0.00317333
-0.00296627
-0.00279604
-0.00262891
-0.00242773
-0.00219382
-0.00197996
-0.00180762
-0.00163864
-0.00144072
-0.00122738
-0.001034
-0.000869221
-0.00070365
-0.000520098
-0.00033549
-0.000158452
3.12548e-05
0.000243508
0.000461045
0.000674771
0.000901475
0.00114187
0.00136419
0.00156875
0.00178865
0.00201926
0.00224237
0.00247214
0.00273015
0.00299925
0.00325306
0.0035129
0.00378689
0.00405241
0.00431732
0.00460236
0.00489498
0.00519015
0.00549722
0.00580974
0.00612616
0.00644906
0.00677288
0.00710324
0.00743378
0.00777151
0.008124
0.00849043
0.00886285
0.00923849
0.00961924
0.0100041
0.0103968
0.0108016
0.0112119
0.0116338
0.0120603
0.0125015
0.0129493
0.0134062
0.0138754
0.0143465
0.0148383
0.015338
0.0158421
0.0163657
0.0168914
0.0174296
0.017985
0.0185452
0.0191125
0.0196965
0.0202876
0.0208845
0.0215025
0.0221182
0.0226447
0.0232033
0.00255685
1.9851e-05
-0.00505546
-0.0095588
-0.0111241
-0.0104417
-0.00914114
-0.00791434
-0.00690815
-0.00612909
-0.00556059
-0.00523218
-0.00511535
-0.0049954
-0.00470623
-0.0043467
-0.00404523
-0.0038213
-0.00368816
-0.00358335
-0.00340157
-0.00316849
-0.00296295
-0.00279268
-0.00262518
-0.0024244
-0.00219142
-0.00197804
-0.00180552
-0.0016363
-0.00143854
-0.0012255
-0.0010322
-0.000867375
-0.000701917
-0.000518613
-0.000334194
-0.000157246
3.23682e-05
0.000244509
0.000461978
0.000675674
0.000902334
0.00114267
0.00136494
0.00156945
0.00178928
0.00201985
0.00224292
0.00247266
0.00273065
0.00299974
0.00325353
0.00351334
0.00378732
0.0040528
0.00431768
0.00460271
0.00489532
0.00519047
0.00549753
0.00581004
0.00612645
0.00644935
0.00677316
0.0071035
0.00743403
0.00777174
0.00812422
0.00849065
0.00886306
0.00923869
0.00961943
0.0100043
0.010397
0.0108018
0.011212
0.011634
0.0120604
0.0125016
0.0129494
0.0134063
0.0138755
0.0143466
0.0148385
0.0153381
0.0158422
0.0163658
0.0168915
0.0174297
0.0179851
0.0185453
0.0191126
0.0196966
0.0202877
0.0208846
0.0215026
0.0221183
0.0226449
0.0232035
0.00208658
-0.000167724
-0.00482445
-0.00916485
-0.0108589
-0.0103264
-0.00908108
-0.0078688
-0.00687168
-0.00610313
-0.0055458
-0.00522348
-0.00510409
-0.0049789
-0.00468956
-0.00433509
-0.00403904
-0.00381683
-0.00368126
-0.00357369
-0.00339246
-0.00316223
-0.00295861
-0.00278823
-0.00262015
-0.00241997
-0.00218842
-0.00197585
-0.00180305
-0.00163346
-0.00143595
-0.00122336
-0.00103009
-0.000865019
-0.000699595
-0.000516635
-0.000332484
-0.000155634
3.38297e-05
0.000245746
0.000463101
0.000676797
0.000903411
0.00114365
0.00136587
0.00157034
0.00179008
0.00202055
0.00224358
0.0024733
0.00273125
0.00300032
0.00325409
0.00351388
0.00378781
0.00405325
0.0043181
0.00460312
0.00489571
0.00519083
0.00549789
0.00581039
0.00612678
0.00644967
0.00677347
0.0071038
0.00743431
0.007772
0.00812447
0.00849089
0.00886331
0.00923893
0.00961966
0.0100045
0.0103972
0.010802
0.0112122
0.0116342
0.0120606
0.0125018
0.0129496
0.0134064
0.0138757
0.0143468
0.0148386
0.0153382
0.0158424
0.016366
0.0168917
0.0174298
0.0179852
0.0185454
0.0191127
0.0196967
0.0202878
0.0208847
0.0215027
0.0221185
0.0226452
0.0232038
0.00163758
-0.000379653
-0.00461426
-0.00876323
-0.0105725
-0.0102004
-0.00901899
-0.00782178
-0.00683248
-0.00607429
-0.00552884
-0.00521345
-0.00509183
-0.00496125
-0.00467175
-0.00432275
-0.00403272
-0.00381255
-0.00367425
-0.00356329
-0.00338228
-0.00315497
-0.00295332
-0.00278267
-0.00261385
-0.00241441
-0.00218474
-0.00197323
-0.0018001
-0.00163007
-0.00143299
-0.00122111
-0.00102784
-0.000862276
-0.000696729
-0.000514138
-0.000330277
-0.000153487
3.57719e-05
0.000247305
0.000464448
0.000678148
0.000904702
0.00114481
0.00136701
0.0015715
0.00179112
0.00202141
0.00224439
0.0024741
0.00273198
0.00300101
0.00325479
0.00351455
0.00378842
0.0040538
0.0043186
0.00460359
0.00489615
0.00519126
0.00549831
0.00581079
0.00612716
0.00645005
0.00677383
0.00710414
0.00743463
0.0077723
0.00812476
0.00849118
0.00886359
0.00923921
0.00961992
0.0100047
0.0103974
0.0108022
0.0112124
0.0116344
0.0120608
0.012502
0.0129497
0.0134066
0.0138758
0.0143469
0.0148387
0.0153384
0.0158425
0.0163661
0.0168918
0.0174299
0.0179854
0.0185455
0.0191128
0.0196968
0.0202879
0.0208848
0.0215028
0.0221186
0.0226456
0.0232041
0.00121191
-0.000607354
-0.00442298
-0.00835409
-0.0102641
-0.0100629
-0.00895559
-0.00777453
-0.0067912
-0.00604256
-0.00550956
-0.00520208
-0.00507878
-0.0049428
-0.00465307
-0.00430975
-0.00402606
-0.00380817
-0.00366712
-0.00355252
-0.00337158
-0.00314715
-0.00294735
-0.00277621
-0.0026065
-0.00240793
-0.00218041
-0.00197015
-0.00179663
-0.00162613
-0.00142967
-0.00121877
-0.00102558
-0.000859358
-0.00069352
-0.000511248
-0.000327619
-0.000150779
3.8282e-05
0.000249288
0.000466083
0.000679736
0.000906173
0.00114609
0.00136833
0.00157295
0.00179244
0.00202251
0.00224542
0.00247509
0.00273284
0.0030018
0.00325562
0.00351538
0.00378915
0.00405446
0.00431924
0.00460417
0.00489667
0.00519175
0.0054988
0.00581126
0.00612761
0.00645049
0.00677426
0.00710454