/*--------------------------------*- C++ -*----------------------------------*\
| =========                 |                                                 |
| \\      /  F ield         | OpenFOAM: The Open Source CFD Toolbox           |
|  \\    /   O peration     | Version:  3.0.1                                 |
|   \\  /    A nd           | Web:      www.OpenFOAM.org                      |
|    \\/     M anipulation  |                                                 |
\*---------------------------------------------------------------------------*/
FoamFile
{
    version     2.0;
    format      ascii;
    class       surfaceScalarField;
    location    "2";
    object      phi;
}
// * * * * * * * * * * * * * * * * * * * * * * * * * * * * * * * * * * * * * //

dimensions      [0 3 -1 0 0 0 0];

internalField   nonuniform List<scalar> 
19000
(
1.17528e-06
4.04362e-08
1.17569e-06
-1.70976e-07
1.17145e-06
5.21008e-07
1.1188e-06
-2.24836e-07
1.1709e-06
-3.62524e-07
1.20027e-06
-9.22733e-08
1.15208e-06
8.10681e-08
1.14706e-06
2.44107e-07
1.15272e-06
4.86877e-07
1.11868e-06
-1.98393e-07
1.15252e-06
2.65354e-07
1.12477e-06
-4.78185e-07
1.15913e-06
-1.607e-07
1.14248e-06
-1.83675e-07
1.15748e-06
-1.78032e-07
1.15609e-06
-1.40382e-08
1.15642e-06
-5.31256e-08
1.14977e-06
4.27798e-08
1.15035e-06
9.35869e-08
1.59545e-07
1.12679e-06
1.22996e-06
3.47368e-08
1.23113e-06
-1.72146e-07
1.2239e-06
5.28234e-07
1.17423e-06
-1.75163e-07
1.22605e-06
-4.14346e-07
1.25646e-06
-1.2268e-07
1.20664e-06
1.30886e-07
1.20432e-06
2.46429e-07
1.20451e-06
4.86688e-07
1.17651e-06
-1.70396e-07
1.20176e-06
2.40102e-07
1.18177e-06
-4.58195e-07
1.20692e-06
-1.85843e-07
1.20441e-06
-1.81173e-07
1.20745e-06
-1.81065e-07
1.2238e-06
-3.03856e-08
1.20383e-06
-3.316e-08
1.22018e-06
2.64304e-08
1.19119e-06
1.22573e-07
1.41515e-07
1.20922e-06
1.28624e-06
3.12786e-08
1.28866e-06
-1.74564e-07
1.27867e-06
5.38223e-07
1.23757e-06
-1.3406e-07
1.2818e-06
-4.58579e-07
1.31502e-06
-1.55901e-07
1.26537e-06
1.80539e-07
1.26266e-06
2.49136e-07
1.26004e-06
4.89307e-07
1.24134e-06
-1.51698e-07
1.25823e-06
2.23212e-07
1.24955e-06
-4.49513e-07
1.26117e-06
-1.97465e-07
1.272e-06
-1.92e-07
1.26482e-06
-1.73886e-07
1.28529e-06
-5.08557e-08
1.26503e-06
-1.29019e-08
1.27359e-06
1.78703e-08
1.25921e-06
1.36955e-07
1.49938e-07
1.25079e-06
1.34485e-06
3.05366e-08
1.34838e-06
-1.78094e-07
1.33722e-06
5.49375e-07
1.30791e-06
-1.04746e-07
1.33992e-06
-4.90592e-07
1.3736e-06
-1.89582e-07
1.32901e-06
2.2513e-07
1.32293e-06
2.55217e-07
1.32104e-06
4.91197e-07
1.31059e-06
-1.41238e-07
1.32194e-06
2.11854e-07
1.32047e-06
-4.4804e-07
1.32376e-06
-2.00751e-07
1.33857e-06
-2.06816e-07
1.33131e-06
-1.66621e-07
1.34505e-06
-6.46013e-08
1.33482e-06
-2.67196e-09
1.3328e-06
1.98972e-08
1.32748e-06
1.42272e-07
1.6423e-07
1.31319e-06
1.40672e-06
3.21706e-08
1.41044e-06
-1.81817e-07
1.4005e-06
5.59315e-07
1.3828e-06
-8.70399e-08
1.40145e-06
-5.09248e-07
1.43162e-06
-2.19752e-07
1.39756e-06
2.59195e-07
1.38752e-06
2.65256e-07
1.38816e-06
4.9056e-07
1.38279e-06
-1.35874e-07
1.39132e-06
2.03321e-07
1.39148e-06
-4.48199e-07
1.39164e-06
-2.00911e-07
1.40465e-06
-2.19821e-07
1.40115e-06
-1.63125e-07
1.40926e-06
-7.27098e-08
1.40527e-06
1.32094e-09
1.40005e-06
2.51117e-08
1.3958e-06
1.46523e-07
1.77646e-07
1.38239e-06
1.47267e-06
3.51751e-08
1.47543e-06
-1.84574e-07
1.46882e-06
5.6592e-07
1.46012e-06
-7.83382e-08
1.46725e-06
-5.16379e-07
1.49061e-06
-2.43109e-07
1.46939e-06
2.80415e-07
1.45793e-06
2.76716e-07
1.46084e-06
4.87653e-07
1.45765e-06
-1.32692e-07
1.46461e-06
1.96361e-07
1.46322e-06
-4.4681e-07
1.46194e-06
-1.99628e-07
1.47171e-06
-2.29586e-07
1.4709e-06
-1.62316e-07
1.47663e-06
-7.84481e-08
1.47523e-06
2.72249e-09
1.46966e-06
3.06807e-08
1.4663e-06
1.49883e-07
1.90515e-07
1.45343e-06
1.543e-06
3.8388e-08
1.54408e-06
-1.85649e-07
1.54175e-06
5.68246e-07
1.5389e-06
-7.54873e-08
1.53758e-06
-5.15062e-07
1.55285e-06
-2.5837e-07
1.54284e-06
2.90425e-07
1.53347e-06
2.86079e-07
1.53791e-06
4.83216e-07
1.53517e-06
-1.29949e-07
1.54092e-06
1.90604e-07
1.53696e-06
-4.42846e-07
1.53429e-06
-1.96958e-07
1.5407e-06
-2.35999e-07
1.54095e-06
-1.62564e-07
1.54549e-06
-8.29881e-08
1.54586e-06
2.35627e-09
1.54007e-06
3.64636e-08
1.53854e-06
1.51419e-07
2.0253e-07
1.52652e-06
1.61748e-06
4.10342e-08
1.61693e-06
-1.85093e-07
1.61851e-06
5.66666e-07
1.61899e-06
-7.5968e-08
1.61212e-06
-5.08197e-07
1.61993e-06
-2.66176e-07
1.61752e-06
2.92828e-07
1.61247e-06
2.9113e-07
1.61816e-06
4.77534e-07
1.61524e-06
-1.27036e-07
1.62004e-06
1.85803e-07
1.61349e-06
-4.36291e-07
1.60958e-06
-1.93052e-07
1.61256e-06
-2.38977e-07
1.61292e-06
-1.62918e-07
1.61598e-06
-8.60517e-08
1.61802e-06
3.17796e-10
1.61203e-06
4.24475e-08
1.61253e-06
1.50923e-07
2.12801e-07
1.60226e-06
1.69568e-06
4.29258e-08
1.6941e-06
-1.83514e-07
1.69851e-06
5.62254e-07
1.70067e-06
-7.81211e-08
1.69039e-06
-4.97921e-07
1.69243e-06
-2.68219e-07
1.69429e-06
2.90977e-07
1.69385e-06
2.91564e-07
1.70079e-06
4.70591e-07
1.69773e-06
-1.23967e-07
1.70198e-06
1.81546e-07
1.69318e-06
-4.27486e-07
1.68855e-06
-1.88423e-07
1.6881e-06
-2.38524e-07
1.68814e-06
-1.62962e-07
1.68912e-06
-8.70281e-08
1.69247e-06
-3.03968e-09
1.68642e-06
4.84972e-08
1.68872e-06
1.48623e-07
2.20604e-07
1.68092e-06
1.77737e-06
4.42752e-08
1.77546e-06
-1.81603e-07
1.78166e-06
5.56055e-07
1.78447e-06
-8.09293e-08
1.77214e-06
-4.85593e-07
1.77033e-06
-2.66403e-07
1.77427e-06
2.87032e-07
1.77753e-06
2.88306e-07
1.7857e-06
4.62417e-07
1.78258e-06
-1.20844e-07
1.7868e-06
1.77328e-07
1.77616e-06
-4.16851e-07
1.77143e-06
-1.83693e-07
1.7678e-06
-2.3489e-07
1.76748e-06
-1.62643e-07
1.76596e-06
-8.55039e-08
1.77005e-06
-7.12927e-09
1.76398e-06
5.45641e-08
1.76749e-06
1.45108e-07
2.2556e-07
1.76254e-06
1.86264e-06
4.53881e-08
1.86083e-06
-1.79799e-07
1.86816e-06
5.48727e-07
1.87102e-06
-8.37914e-08
1.8574e-06
-4.71973e-07
1.85336e-06
-2.62358e-07
1.85833e-06
2.82057e-07
1.86398e-06
2.82655e-07
1.87324e-06
4.53161e-07
1.87002e-06
-1.1762e-07
1.87462e-06
1.7272e-07
1.86252e-06
-4.0475e-07
1.85823e-06
-1.79399e-07
1.85186e-06
-2.28519e-07
1.85136e-06
-1.62145e-07
1.84729e-06
-8.14355e-08
1.85151e-06
-1.13432e-08
1.84542e-06
6.06527e-08
1.84923e-06
1.41293e-07
2.27617e-07
1.84718e-06
1.95175e-06
4.64765e-08
1.95019e-06
-1.78236e-07
1.95835e-06
5.40563e-07
1.96095e-06
-8.63895e-08
1.94641e-06
-4.5743e-07
1.94129e-06
-2.57247e-07
1.9469e-06
2.76448e-07
1.95378e-06
2.75778e-07
1.96394e-06
4.42997e-07
1.96045e-06
-1.14132e-07
1.96573e-06
1.67449e-07
1.9524e-06
-3.91421e-07
1.94891e-06
-1.75913e-07
1.9403e-06
-2.19905e-07
1.9399e-06
-1.61747e-07
1.9336e-06
-7.51407e-08
1.93742e-06
-1.51642e-08
1.93141e-06
6.66676e-08
1.93448e-06
1.38227e-07
2.26923e-07
1.93517e-06
2.04504e-06
4.76287e-08
2.04365e-06
-1.76853e-07
2.05256e-06
5.3166e-07
2.05477e-06
-8.85997e-08
2.03947e-06
-4.42136e-07
2.03398e-06
-2.51754e-07
2.04014e-06
2.70291e-07
2.04738e-06
2.68537e-07
2.05832e-06
4.32054e-07
2.05439e-06
-1.10205e-07
2.06047e-06
1.61375e-07
2.04603e-06
-3.76978e-07
2.04355e-06
-1.73437e-07
2.03313e-06
-2.09486e-07
2.03307e-06
-1.61684e-07
2.0251e-06
-6.71768e-08
2.02813e-06
-1.81885e-08
2.02247e-06
7.2329e-08
2.02396e-06
1.36732e-07
2.23822e-07
2.02706e-06
2.14278e-06
4.88533e-08
2.14146e-06
-1.75536e-07
2.15106e-06
5.22062e-07
2.15287e-06
-9.04113e-08
2.13695e-06
-4.26221e-07
2.13136e-06
-2.4616e-07
2.1381e-06
2.63555e-07
2.14516e-06
2.61477e-07
2.15682e-06
4.20392e-07
2.15232e-06
-1.05711e-07
2.15926e-06
1.54434e-07
2.14375e-06
-3.61463e-07
2.14235e-06
-1.72032e-07
2.13047e-06
-1.97615e-07
2.13083e-06
-1.62042e-07
2.12187e-06
-5.82134e-08
2.12375e-06
-2.0068e-08
2.11888e-06
7.71979e-08
2.11844e-06
1.37175e-07
2.18868e-07
2.12339e-06
2.24522e-06
5.01242e-08
2.24387e-06
-1.74186e-07
2.2541e-06
5.11825e-07
2.25555e-06
-9.18558e-08
2.23917e-06
-4.09846e-07
2.23348e-06
-2.40468e-07
2.24085e-06
2.56184e-07
2.24744e-06
2.54886e-07
2.25982e-06
4.08018e-07
2.25467e-06
-1.00564e-07
2.2625e-06
1.46608e-07
2.24593e-06
-3.44896e-07
2.24555e-06
-1.71658e-07
2.23252e-06
-1.84583e-07
2.23321e-06
-1.62728e-07
2.22392e-06
-4.89266e-08
2.22431e-06
-2.04597e-08
2.22072e-06
8.07885e-08
2.21845e-06
1.39443e-07
2.12796e-07
2.22453e-06
2.35259e-06
5.14055e-08
2.35115e-06
-1.72738e-07
2.36195e-06
5.01021e-07
2.36305e-06
-9.29569e-08
2.34642e-06
-3.93214e-07
2.34049e-06
-2.34537e-07
2.34855e-06
2.48126e-07
2.35454e-06
2.48891e-07
2.36766e-06
3.94903e-07
2.3618e-06
-9.47071e-08
2.3705e-06
1.37913e-07
2.35292e-06
-3.27319e-07
2.35345e-06
-1.72191e-07
2.33954e-06
-1.70675e-07
2.34028e-06
-1.63468e-07
2.33132e-06
-3.99598e-08
2.32988e-06
-1.90218e-08
2.32796e-06
8.2709e-08
2.3243e-06
1.43103e-07
2.06389e-07
2.3307e-06
2.46514e-06
5.26623e-08
2.46356e-06
-1.71158e-07
2.47486e-06
4.89718e-07
2.47561e-06
-9.3706e-08
2.45894e-06
-3.76546e-07
2.45259e-06
-2.28184e-07
2.46138e-06
2.3934e-07
2.46674e-06
2.43531e-07
2.48063e-06
3.81006e-07
2.47404e-06
-8.81103e-08
2.48354e-06
1.28406e-07
2.46505e-06
-3.08825e-07
2.46629e-06
-1.73435e-07
2.45183e-06
-1.56209e-07
2.45222e-06
-1.63864e-07
2.44414e-06
-3.18723e-08
2.44064e-06
-1.55273e-08
2.4405e-06
8.28524e-08
2.43607e-06
1.47531e-07
2.00346e-07
2.44211e-06
2.58309e-06
5.38638e-08
2.58136e-06
-1.69425e-07
2.59312e-06
4.77962e-07
2.59347e-06
-9.40585e-08
2.57698e-06
-3.60055e-07
2.57003e-06
-2.21236e-07
2.57958e-06
2.2979e-07
2.5843e-06
2.38814e-07
2.599e-06
3.66298e-07
2.59168e-06
-8.0784e-08
2.60189e-06
1.18195e-07
2.58265e-06
-2.89583e-07
2.58433e-06
-1.7512e-07
2.56968e-06
-1.4156e-07
2.56926e-06
-1.63437e-07
2.56251e-06
-2.51234e-08
2.55695e-06
-9.97216e-09
2.55829e-06
8.15159e-08
2.55386e-06
1.51957e-07
1.95218e-07
2.55899e-06
2.70671e-06
5.49842e-08
2.70481e-06
-1.67527e-07
2.717e-06
4.6577e-07
2.71688e-06
-9.39399e-08
2.70075e-06
-3.43924e-07
2.69307e-06
-2.13554e-07
2.70343e-06
2.19436e-07
2.7075e-06
2.34741e-07
2.72301e-06
3.50785e-07
2.71502e-06
-7.27894e-08
2.72576e-06
1.07455e-07
2.70602e-06
-2.69843e-07
2.70781e-06
-1.76911e-07
2.69338e-06
-1.27132e-07
2.69167e-06
-1.61729e-07
2.68655e-06
-1.99995e-08
2.67917e-06
-2.5967e-09
2.6814e-06
7.92849e-08
2.67776e-06
1.55604e-07
1.91336e-07
2.68164e-06
2.83625e-06
5.60014e-08
2.83418e-06
-1.65453e-07
2.84682e-06
4.53131e-07
2.84613e-06
-9.32551e-08
2.83052e-06
-3.28318e-07
2.822e-06
-2.05031e-07
2.83319e-06
2.08246e-07
2.83663e-06
2.31306e-07
2.85289e-06
3.3452e-07
2.84435e-06
-6.42489e-08
2.85538e-06
9.64213e-08
2.83546e-06
-2.49914e-07
2.83699e-06
-1.78445e-07
2.82318e-06
-1.13322e-07
2.8198e-06
-1.58353e-07
2.8164e-06
-1.65999e-08
2.80764e-06
6.16386e-09
2.8101e-06
7.68316e-08
2.80784e-06
1.57858e-07
1.88767e-07
2.81041e-06
2.972e-06
5.68954e-08
2.96973e-06
-1.63182e-07
2.98285e-06
4.4001e-07
2.98149e-06
-9.18963e-08
2.96655e-06
-3.13379e-07
2.95711e-06
-1.95586e-07
2.96916e-06
1.962e-07
2.97199e-06
2.28473e-07
2.98889e-06
3.17621e-07
2.97999e-06
-5.53557e-08
2.99102e-06
8.54006e-08
2.97126e-06
-2.30157e-07
2.97217e-06
-1.79362e-07
2.95931e-06
-1.00459e-07
2.95405e-06
-1.5309e-07
2.95222e-06
-1.47679e-08
2.94265e-06
1.57274e-08
2.94473e-06
7.47541e-08
2.94422e-06
1.58368e-07
1.87316e-07
2.94567e-06
3.11425e-06
5.76467e-08
3.11176e-06
-1.60686e-07
3.12542e-06
4.26354e-07
3.12327e-06
-8.97498e-08
3.10913e-06
-2.99239e-07
3.09871e-06
-1.85165e-07
3.1116e-06
1.83311e-07
3.1139e-06
2.26167e-07
3.13125e-06
3.00269e-07
3.12227e-06
-4.63713e-08
3.13292e-06
7.47451e-08
3.1137e-06
-2.10937e-07
3.1137e-06
-1.79353e-07
3.102e-06
-8.87654e-08
3.0948e-06
-1.45893e-07
3.09422e-06
-1.41875e-08
3.08443e-06
2.55186e-08
3.08573e-06
7.34619e-08
3.08703e-06
1.5706e-07
1.86599e-07
3.08775e-06
3.26332e-06
5.82356e-08
3.26056e-06
-1.57922e-07
3.27482e-06
4.12089e-07
3.27177e-06
-8.67017e-08
3.25854e-06
-2.86009e-07
3.24713e-06
-1.73748e-07
3.26079e-06
1.69643e-07
3.2627e-06
2.24258e-07
3.28026e-06
2.82716e-07
3.27151e-06
-3.76242e-08
3.28143e-06
6.48299e-08
3.26305e-06
-1.92566e-07
3.26192e-06
-1.78218e-07
3.25147e-06
-7.83177e-08
3.24247e-06
-1.36894e-07
3.24273e-06
-1.44423e-08
3.2332e-06
3.50426e-08
3.23349e-06
7.31794e-08
3.23648e-06
1.54066e-07
1.86141e-07
3.23694e-06
3.41953e-06
5.86419e-08
3.41643e-06
-1.54831e-07
3.43139e-06
3.97129e-07
3.42734e-06
-8.26475e-08
3.41511e-06
-2.73781e-07
3.40272e-06
-1.61357e-07
3.41704e-06
1.5532e-07
3.41875e-06
2.2255e-07
3.43619e-06
2.65272e-07
3.42806e-06
-2.94873e-08
3.43688e-06
5.60097e-08
3.41957e-06
-1.75263e-07
3.41724e-06
-1.75882e-07
3.40798e-06
-6.9057e-08
3.39742e-06
-1.26335e-07
3.39811e-06
-1.51309e-08
3.38924e-06
4.39136e-08
3.38839e-06
7.40257e-08
3.39282e-06
1.4963e-07
1.85434e-07
3.39353e-06
3.58321e-06
5.88439e-08
3.57972e-06
-1.51338e-07
3.59547e-06
3.81375e-07
3.59032e-06
-7.7501e-08
3.57916e-06
-2.62615e-07
3.56586e-06
-1.48061e-07
3.58065e-06
1.40536e-07
3.58241e-06
2.20788e-07
3.59939e-06
2.48292e-07
3.59224e-06
-2.23345e-08
3.5997e-06
4.85464e-08
3.58352e-06
-1.5908e-07
3.58005e-06
-1.72419e-07
3.57181e-06
-6.08166e-08
3.55996e-06
-1.14483e-07
3.56076e-06
-1.59319e-08
3.55283e-06
5.18473e-08
3.55082e-06
7.60308e-08
3.55634e-06
1.4411e-07
1.83977e-07
3.5578e-06
3.75473e-06
5.88182e-08
3.75075e-06
-1.47353e-07
3.7674e-06
3.64724e-07
3.76111e-06
-7.12093e-08
3.75102e-06
-2.52527e-07
3.73695e-06
-1.33997e-07
3.75193e-06
1.25562e-07
3.75406e-06
2.18651e-07
3.77019e-06
2.32163e-07
3.76436e-06
-1.64993e-08
3.77034e-06
4.25664e-08
3.75516e-06
-1.43904e-07
3.75075e-06
-1.68012e-07
3.74333e-06
-5.33932e-08
3.73045e-06
-1.01607e-07
3.73108e-06
-1.65537e-08
3.72435e-06
5.85738e-08
3.7212e-06
7.91797e-08
3.72735e-06
1.37959e-07
1.81309e-07
3.73002e-06
3.93447e-06
5.85379e-08
3.92989e-06
-1.42772e-07
3.94753e-06
3.47083e-07
3.94009e-06
-6.37668e-08
3.93103e-06
-2.43472e-07
3.91641e-06
-1.19375e-07
3.93123e-06
1.10743e-07
3.93411e-06
2.15771e-07
3.94901e-06
2.17267e-07
3.9447e-06
-1.21962e-08
3.94926e-06
3.80093e-08
3.93484e-06
-1.29484e-07
3.92969e-06
-1.62866e-07
3.92294e-06
-4.6637e-08
3.90924e-06
-8.79078e-08
3.90944e-06
-1.67517e-08
3.90415e-06
6.38556e-08
3.89999e-06
8.3345e-08
3.90618e-06
1.31764e-07
1.77064e-07
3.91043e-06
4.12281e-06
5.79735e-08
4.11753e-06
-1.37491e-07
4.13623e-06
3.28384e-07
4.1277e-06
-5.52292e-08
4.11955e-06
-2.35328e-07
4.10467e-06
-1.0449e-07
4.11893e-06
9.64818e-08
4.12294e-06
2.1176e-07
4.13628e-06
2.03923e-07
4.13353e-06
-9.4432e-09
4.13694e-06
3.4603e-08
4.12294e-06
-1.15484e-07
4.1172e-06
-1.57129e-07
4.11107e-06
-4.05117e-08
4.09669e-06
-7.35278e-08
4.09624e-06
-1.63021e-08
4.09256e-06
6.75419e-08
4.0877e-06
8.82033e-08
4.09325e-06
1.26211e-07
1.71086e-07
4.09923e-06
4.32018e-06
5.70937e-08
4.31411e-06
-1.31417e-07
4.33388e-06
3.08612e-07
4.32438e-06
-4.57309e-08
4.31694e-06
-2.27891e-07
4.30217e-06
-8.97114e-08
4.31543e-06
8.32147e-08
4.32095e-06
2.06246e-07
4.33255e-06
1.92324e-07
4.33113e-06
-8.03122e-09
4.33379e-06
3.19478e-08
4.31991e-06
-1.01609e-07
4.3136e-06
-1.50816e-07
4.30816e-06
-3.50758e-08
4.29327e-06
-5.86316e-08
4.29194e-06
-1.49709e-08
4.28988e-06
6.96019e-08
4.28483e-06
9.32518e-08
4.28913e-06
1.21905e-07
1.63589e-07
4.29663e-06
4.527e-06
5.58688e-08
4.52007e-06
-1.24485e-07
4.54086e-06
2.87823e-07
4.53062e-06
-3.54925e-08
4.5236e-06
-2.20875e-07
4.50935e-06
-7.5464e-08
4.5212e-06
7.13691e-08
4.52853e-06
1.98919e-07
4.53834e-06
1.82506e-07
4.53789e-06
-7.57382e-09
4.54022e-06
2.96196e-08
4.52624e-06
-8.76384e-08
4.51927e-06
-1.4384e-07
4.51459e-06
-3.03961e-08
4.4994e-06
-4.34445e-08
4.49702e-06
-1.25871e-08
4.49644e-06
7.01771e-08
4.49177e-06
9.79233e-08
4.49455e-06
1.1913e-07
1.55217e-07
4.50292e-06
4.74371e-06
5.4275e-08
4.7359e-06
-1.16674e-07
4.75757e-06
2.66149e-07
4.7469e-06
-2.4816e-08
4.73995e-06
-2.13929e-07
4.72668e-06
-6.21907e-08
4.73673e-06
6.13189e-08
4.74603e-06
1.89617e-07
4.75424e-06
1.74291e-07
4.75424e-06
-7.5727e-09
4.75658e-06
2.72787e-08
4.74244e-06
-7.34944e-08
4.7346e-06
-1.35998e-07
4.73069e-06
-2.6491e-08
4.71559e-06
-2.83423e-08
4.71199e-06
-8.99059e-09
4.71268e-06
6.94947e-08
4.70886e-06
1.01743e-07
4.71022e-06
1.17763e-07
1.46898e-07
4.71854e-06
4.97078e-06
5.2297e-08
4.96212e-06
-1.08019e-07
4.98447e-06
2.43803e-07
4.97373e-06
-1.40778e-08
4.96646e-06
-2.06658e-07
4.95458e-06
-5.03155e-08
4.96255e-06
5.33476e-08
4.97373e-06
1.78436e-07
4.98077e-06
1.67251e-07
4.98071e-06
-7.50457e-09
4.98327e-06
2.47184e-08
4.96899e-06
-5.92185e-08
4.96002e-06
-1.27029e-07
4.95688e-06
-2.33472e-08
4.94229e-06
-1.37537e-08
4.93743e-06
-4.12853e-09
4.93907e-06
6.7852e-08
4.9364e-06
1.04413e-07
4.93676e-06
1.17398e-07
1.39452e-07
4.94421e-06
5.20868e-06
4.99312e-08
5.19928e-06
-9.86149e-08
5.222e-06
2.21079e-07
5.21165e-06
-3.72984e-09
5.20365e-06
-1.98655e-07
5.1935e-06
-4.01607e-08
5.19929e-06
4.75568e-08
5.21192e-06
1.658e-07
5.2184e-06
1.60776e-07
5.21783e-06
-6.93125e-09
5.22062e-06
2.19247e-08
5.20636e-06
-4.49614e-08
5.196e-06
-1.16666e-07
5.19358e-06
-2.09281e-08
5.17998e-06
-1.52582e-10
5.1739e-06
1.94935e-09
5.17616e-06
6.55938e-08
5.17473e-06
1.05838e-07
5.17462e-06
1.17514e-07
1.33325e-07
5.18075e-06
5.45793e-06
4.71857e-08
5.44793e-06
-8.86073e-08
5.47068e-06
1.98331e-07
5.46121e-06
5.7408e-09
5.45213e-06
-1.89585e-07
5.44383e-06
-3.18609e-08
5.44762e-06
4.37745e-08
5.4611e-06
1.52314e-07
5.4675e-06
1.54377e-07
5.46617e-06
-5.59614e-09
5.469e-06
1.90946e-08
5.45495e-06
-3.09116e-08
5.44311e-06
-1.04824e-07
5.44133e-06
-1.91548e-08
5.42916e-06
1.20182e-08
5.422e-06
9.10596e-09
5.42452e-06
6.30739e-08
5.42432e-06
1.0604e-07
5.42414e-06
1.17698e-07
1.28501e-07
5.42896e-06
5.71906e-06
4.40814e-08
5.70864e-06
-7.81869e-08
5.73103e-06
1.75944e-07
5.7229e-06
1.38691e-08
5.71258e-06
-1.79266e-07
5.70604e-06
-2.53179e-08
5.70817e-06
4.16414e-08
5.72186e-06
1.38622e-07
5.72842e-06
1.47819e-07
5.72617e-06
-3.34871e-09
5.72869e-06
1.65751e-08
5.71517e-06
-1.73892e-08
5.70203e-06
-9.16798e-08
5.70074e-06
-1.78628e-08
5.69035e-06
2.24054e-08
5.68232e-06
1.71304e-08
5.68473e-06
6.06708e-08
5.68572e-06
1.05044e-07
5.68569e-06
1.17729e-07
1.24687e-07
5.6895e-06
5.99263e-06
4.06475e-08
5.982e-06
-6.75632e-08
6.00367e-06
1.54281e-07
5.99723e-06
2.03011e-08
5.9857e-06
-1.67729e-07
5.98056e-06
-2.01845e-08
5.98144e-06
4.077e-08
5.99474e-06
1.25314e-07
6.00141e-06
1.4115e-07
5.99803e-06
3.12943e-11
5.99998e-06
1.46285e-08
5.98756e-06
-4.97377e-09
5.97359e-06
-7.77111e-08
5.97246e-06
-1.67279e-08
5.96407e-06
3.07994e-08
5.95545e-06
2.5748e-08
5.95736e-06
5.87598e-08
5.95952e-06
1.02881e-07
5.95976e-06
1.17488e-07
1.2157e-07
5.96288e-06
6.27921e-06
3.69214e-08
6.2686e-06
-5.69446e-08
6.28924e-06
1.3364e-07
6.28464e-06
2.48942e-08
6.27216e-06
-1.55247e-07
6.26805e-06
-1.60723e-08
6.2679e-06
4.09187e-08
6.28022e-06
1.12999e-07
6.28676e-06
1.34609e-07
6.28195e-06
4.84054e-09
6.28345e-06
1.31287e-08
6.27286e-06
5.61325e-09
6.25858e-06
-6.34331e-08
6.2572e-06
-1.53487e-08
6.25082e-06
3.71831e-08
6.24199e-06
3.45756e-08
6.24303e-06
5.77222e-08
6.24629e-06
9.96225e-08
6.24696e-06
1.16817e-07
1.18981e-07
6.24955e-06
6.57945e-06
3.29441e-08
6.56902e-06
-4.65173e-08
6.58842e-06
1.14242e-07
6.58556e-06
2.7754e-08
6.57256e-06
-1.42248e-07
6.56926e-06
-1.27739e-08
6.56814e-06
4.20387e-08
6.57888e-06
1.02258e-07
6.58535e-06
1.28145e-07
6.57949e-06
1.06981e-08
6.58049e-06
1.21306e-08
6.57185e-06
1.42535e-08
6.5576e-06
-4.91874e-08
6.55567e-06
-1.34202e-08
6.55116e-06
4.16977e-08
6.54256e-06
4.31778e-08
6.54247e-06
5.78029e-08
6.54657e-06
9.55286e-08
6.54793e-06
1.15456e-07
1.16854e-07
6.55006e-06
6.89397e-06
2.87628e-08
6.88389e-06
-3.64311e-08
6.90191e-06
9.62176e-08
6.9006e-06
2.90609e-08
6.88743e-06
-1.29071e-07
6.88498e-06
-1.03247e-08
6.88294e-06
4.40711e-08
6.89178e-06
9.34214e-08
6.89837e-06
1.21553e-07
6.89207e-06
1.70008e-08
6.89218e-06
1.20193e-08
6.88516e-06
2.12696e-08
6.87126e-06
-3.5287e-08
6.86858e-06
-1.07385e-08
6.86568e-06
4.46003e-08
6.85774e-06
5.11211e-08
6.85647e-06
5.90666e-08
6.86094e-06
9.10621e-08
6.86326e-06
1.13131e-07
1.15055e-07
6.86506e-06
7.22347e-06
2.44298e-08
7.21385e-06
-2.68069e-08
7.23039e-06
7.96697e-08
7.2305e-06
2.89525e-08
7.21736e-06
-1.15924e-07
7.21582e-06
-8.78986e-09
7.21321e-06
4.66835e-08
7.21999e-06
8.6635e-08
7.22655e-06
1.15e-07
7.22015e-06
2.34038e-08
7.2192e-06
1.29643e-08
7.21347e-06
2.70001e-08
7.2002e-06
-2.20142e-08
7.19667e-06
-7.21063e-09
7.19505e-06
4.6223e-08
7.18813e-06
5.80406e-08
7.18583e-06
6.1365e-08
7.19011e-06
8.6777e-08
7.19352e-06
1.09729e-07
1.13294e-07
7.19528e-06
7.56865e-06
2.00052e-08
7.55959e-06
-1.77458e-08
7.57457e-06
6.46879e-08
7.57598e-06
2.75421e-08
7.56292e-06
-1.02865e-07
7.56239e-06
-8.25995e-09
7.55981e-06
4.92657e-08
7.56435e-06
8.20922e-08
7.57042e-06
1.08932e-07
7.56421e-06
2.96171e-08
7.56227e-06
1.48987e-08
7.55753e-06
3.17436e-08
7.54504e-06
-9.52234e-09
7.54069e-06
-2.86749e-09
7.54e-06
4.69214e-08
7.53433e-06
6.37056e-08
7.53132e-06
6.43731e-08
7.53495e-06
8.31455e-08
7.53926e-06
1.05425e-07
1.11178e-07
7.54137e-06
7.93026e-06
1.55573e-08
7.92185e-06
-9.33609e-09
7.93521e-06
5.13292e-08
7.93784e-06
2.49116e-08
7.92494e-06
-8.99644e-08
7.92511e-06
-8.43352e-09
7.92354e-06
5.08341e-08
7.92568e-06
7.996e-08
7.93056e-06
1.0405e-07
7.92479e-06
3.53885e-08
7.92217e-06
1.75165e-08
7.91816e-06
3.57481e-08
7.9065e-06
2.13808e-09
7.9014e-06
2.2334e-09
7.90132e-06
4.7007e-08
7.89704e-06
6.79794e-08
7.89366e-06
6.77608e-08
7.89641e-06
8.03937e-08
7.9012e-06
1.0063e-07
1.08405e-07
7.90397e-06
8.30907e-06
1.11677e-08
8.30141e-06
-1.67523e-09
8.31302e-06
3.9719e-08
8.31677e-06
2.11652e-08
8.30416e-06
-7.73621e-08
8.3045e-06
-8.77249e-09
8.30462e-06
5.07163e-08
8.30434e-06
8.02376e-08
8.30766e-06
1.00738e-07
8.30257e-06
4.04726e-08
8.29965e-06
2.04386e-08
8.29617e-06
3.92274e-08
8.2854e-06
1.29112e-08
8.27961e-06
8.02473e-09
8.27982e-06
4.67922e-08
8.27698e-06
7.08174e-08
8.27356e-06
7.11811e-08
8.27539e-06
7.85692e-08
8.28024e-06
9.57763e-08
1.04909e-07
8.28374e-06
8.7059e-06
6.93325e-09
8.69914e-06
5.07676e-09
8.70868e-06
3.01804e-08
8.71348e-06
1.63689e-08
8.70094e-06
-6.4826e-08
8.70104e-06
-8.8701e-09
8.70214e-06
4.96216e-08
8.70021e-06
8.21665e-08
8.70262e-06
9.83241e-08
8.6984e-06
4.46958e-08
8.69545e-06
2.33827e-08
8.69239e-06
4.2289e-08
8.68257e-06
2.27319e-08
8.67617e-06
1.44266e-08
8.67638e-06
4.65803e-08
8.67493e-06
7.22673e-08
8.67181e-06
7.42977e-08
8.67277e-06
7.76126e-08
8.67735e-06
9.11919e-08
1.00843e-07
8.68142e-06
9.12159e-06
2.96418e-09
9.11595e-06
1.0716e-08
9.12311e-06
2.30239e-08
9.12864e-06
1.08363e-08
9.11486e-06
-5.1043e-08
9.1125e-06
-6.51544e-09
9.11352e-06
4.85987e-08
9.11404e-06
8.16548e-08
9.11666e-06
9.57018e-08
9.11317e-06
4.81818e-08
9.11032e-06
2.62315e-08
9.10771e-06
4.49004e-08
9.09884e-06
3.15995e-08
9.09201e-06
2.12565e-08
9.09193e-06
4.6664e-08
9.09169e-06
7.25118e-08
9.08921e-06
7.67737e-08
9.08944e-06
7.73784e-08
9.09354e-06
8.7098e-08
9.64223e-08
9.09796e-06
9.55706e-06
-6.32483e-10
9.55267e-06
1.51044e-08
9.55744e-06
1.825e-08
9.56294e-06
5.33413e-09
9.54859e-06
-3.66839e-08
9.54227e-06
-2.04727e-10
9.54539e-06
4.54879e-08
9.54839e-06
7.86536e-08
9.55104e-06
9.30529e-08
9.54778e-06
5.14357e-08
9.54504e-06
2.8969e-08
9.54297e-06
4.69753e-08
9.53512e-06
3.94436e-08
9.52809e-06
2.829e-08
9.5275e-06
4.72577e-08
9.52812e-06
7.18865e-08
9.52655e-06
7.83435e-08
9.52633e-06
7.76054e-08
9.52975e-06
8.36709e-08
9.1839e-08
9.53434e-06
1.00132e-05
-3.74077e-09
1.00102e-05
1.8116e-08
1.00127e-05
1.58178e-08
1.0018e-05
3.21778e-12
1.00053e-05
-2.39422e-08
9.99724e-06
7.80911e-09
1e-05
4.27107e-08
1.00042e-05
7.4463e-08
1.00067e-05
9.05698e-08
1.00033e-05
5.48587e-08
1.00005e-05
3.17452e-08
9.99902e-06
4.84469e-08
9.99236e-06
4.61012e-08
9.98536e-06
3.52914e-08
9.98415e-06
4.84715e-08
9.98527e-06
7.07662e-08
9.98468e-06
7.89294e-08
9.98435e-06
7.79348e-08
9.98702e-06
8.10028e-08
8.73133e-08
9.99155e-06
1.04912e-05
-6.25615e-09
1.04896e-05
1.96504e-08
1.04899e-05
1.55394e-08
1.0495e-05
-5.09303e-09
1.04847e-05
-1.36721e-08
1.04756e-05
1.69475e-08
1.0477e-05
4.13103e-08
1.04819e-05
6.95037e-08
1.04846e-05
8.7962e-08
1.04808e-05
5.85637e-08
1.04777e-05
3.48745e-08
1.04768e-05
4.93989e-08
1.04715e-05
5.13964e-08
1.04647e-05
4.20232e-08
1.04629e-05
5.02895e-08
1.04642e-05
6.94761e-08
1.04645e-05
7.86434e-08
1.04644e-05
7.80288e-08
1.04664e-05
7.89949e-08
8.31251e-08
1.04706e-05
1.09919e-05
-8.10108e-09
1.09918e-05
1.97206e-08
1.09903e-05
1.6983e-08
1.09947e-05
-9.39834e-09
1.09872e-05
-6.24387e-09
1.09777e-05
2.65236e-08
1.09772e-05
4.17967e-08
1.09823e-05
6.43316e-08
1.09855e-05
8.48291e-08
1.09817e-05
6.23737e-08
1.0978e-05
3.85797e-08
1.09773e-05
5.00776e-08
1.09733e-05
5.53355e-08
1.09672e-05
4.81335e-08
1.09649e-05
5.26097e-08
1.09661e-05
6.82726e-08
1.09671e-05
7.76864e-08
1.09674e-05
7.77077e-08
1.0969e-05
7.73769e-08
7.95016e-08
1.09726e-05
1.15165e-05
-9.22875e-09
1.15178e-05
1.84117e-08
1.15151e-05
1.97088e-08
1.1518e-05
-1.22861e-08
1.15134e-05
-1.7209e-09
1.15042e-05
3.57648e-08
1.15017e-05
4.42934e-08
1.15064e-05
5.96436e-08
1.15103e-05
8.09208e-08
1.15068e-05
6.58772e-08
1.15025e-05
4.28963e-08
1.15017e-05
5.0831e-08
1.1499e-05
5.80969e-08
1.14938e-05
5.32981e-08
1.14912e-05
5.52419e-08
1.14921e-05
6.73172e-08
1.14935e-05
7.62756e-08
1.14943e-05
7.69532e-08
1.14958e-05
7.58712e-08
7.64549e-08
1.14988e-05
1.20662e-05
-9.64525e-09
1.20687e-05
1.59952e-08
1.20652e-05
2.31421e-08
1.20661e-05
-1.31614e-08
1.20641e-05
2.78031e-10
1.20561e-05
4.37294e-08
1.20519e-05
4.85439e-08
1.20554e-05
5.61641e-08
1.206e-05
7.63e-08
1.20573e-05
6.85687e-08
1.20525e-05
4.76629e-08
1.20513e-05
5.20072e-08
1.20495e-05
5.98961e-08
1.20454e-05
5.7426e-08
1.20428e-05
5.78643e-08
1.20434e-05
6.66877e-08
1.20451e-05
7.4612e-08
1.20462e-05
7.58032e-08
1.20478e-05
7.43289e-08
7.38074e-08
1.20504e-05
1.26423e-05
-9.39967e-09
1.26455e-05
1.28648e-08
1.26419e-05
2.67329e-08
1.26403e-05
-1.15265e-08
1.26401e-05
3.97178e-10
1.26344e-05
4.95006e-08
1.2629e-05
5.39415e-08
1.26307e-05
5.44315e-08
1.26356e-05
7.13754e-08
1.26341e-05
7.00652e-08
1.26293e-05
5.25012e-08
1.26275e-05
5.37642e-08
1.26264e-05
6.10677e-08
1.26232e-05
6.05462e-08
1.26209e-05
6.01965e-08
1.26212e-05
6.63433e-08
1.2623e-05
7.28711e-08
1.26245e-05
7.43065e-08
1.26261e-05
7.27125e-08
7.1383e-08
1.26285e-05
1.32461e-05
-8.60039e-09
1.32495e-05
9.47274e-09
1.32462e-05
3.00609e-08
1.3242e-05
-7.32724e-09
1.32428e-05
-4.20931e-10
1.32399e-05
5.24601e-08
1.32341e-05
5.96764e-08
1.32339e-05
5.46201e-08
1.32385e-05
6.67729e-08
1.32383e-05
7.02837e-08
1.32339e-05
5.69132e-08
1.32316e-05
5.60274e-08
1.32307e-05
6.20115e-08
1.32285e-05
6.27403e-08
1.32266e-05
6.21078e-08
1.32268e-05
6.61358e-08
1.32285e-05
7.11691e-08
1.32303e-05
7.25335e-08
1.3232e-05
7.0981e-08
6.91093e-08
1.32343e-05
1.3879e-05
-7.3978e-09
1.38822e-05
6.27137e-09
1.38795e-05
3.27246e-08
1.38732e-05
-1.04353e-09
1.38738e-05
-9.77944e-10
1.38737e-05
5.25721e-08
1.38685e-05
6.47987e-08
1.38666e-05
5.65843e-08
1.38702e-05
6.31636e-08
1.38711e-05
6.93958e-08
1.38676e-05
6.04205e-08
1.3865e-05
5.86075e-08
1.38641e-05
6.29445e-08
1.38626e-05
6.42248e-08
1.38611e-05
6.35387e-08
1.38613e-05
6.59232e-08
1.3863e-05
6.95436e-08
1.38649e-05
7.0588e-08
1.38668e-05
6.90822e-08
6.69603e-08
1.3869e-05
1.45422e-05
-5.97273e-09
1.45447e-05
3.81936e-09
1.45431e-05
3.42747e-08
1.45356e-05
6.49902e-09
1.45348e-05
-2.09397e-10
1.4537e-05
5.03675e-08
1.45333e-05
6.84898e-08
1.45301e-05
5.98671e-08
1.45322e-05
6.10255e-08
1.45338e-05
6.78052e-08
1.45314e-05
6.28258e-08
1.45288e-05
6.11513e-08
1.45279e-05
6.39242e-08
1.45268e-05
6.52369e-08
1.45259e-05
6.44844e-08
1.45262e-05
6.56132e-08
1.45278e-05
6.79707e-08
1.45298e-05
6.85694e-08
1.45319e-05
6.70012e-08
6.48589e-08
1.4534e-05
1.52374e-05
-4.52797e-09
1.52389e-05
2.36368e-09
1.52385e-05
3.46272e-08
1.52306e-05
1.44337e-08
1.52279e-05
2.48206e-09
1.52314e-05
4.68492e-08
1.52297e-05
7.02502e-08
1.52258e-05
6.37741e-08
1.52263e-05
6.04694e-08
1.5228e-05
6.61256e-08
1.52267e-05
6.41367e-08
1.52246e-05
6.32539e-08
1.52235e-05
6.49671e-08
1.52229e-05
6.58977e-08
1.52223e-05
6.50272e-08
1.52228e-05
6.51692e-08
1.52244e-05
6.63983e-08
1.52264e-05
6.65448e-08
1.52286e-05
6.4779e-08
6.26871e-08
1.52308e-05
1.5966e-05
-3.22479e-09
1.59664e-05
1.97103e-09
1.59671e-05
3.39779e-08
1.59595e-05
2.19978e-08
1.59549e-05
7.09336e-09
1.59586e-05
4.31924e-08
1.59588e-05
7.00206e-08
1.59551e-05
6.75035e-08
1.59542e-05
6.13191e-08
1.59554e-05
6.49478e-08
1.5955e-05
6.45327e-08
1.59535e-05
6.46896e-08
1.59526e-05
6.58949e-08
1.59522e-05
6.63337e-08
1.5952e-05
6.52151e-08
1.59526e-05
6.46004e-08
1.59542e-05
6.47854e-08
1.59562e-05
6.45307e-08
1.59585e-05
6.25034e-08
6.03631e-08
1.59608e-05
1.67295e-05
-2.15978e-09
1.67288e-05
2.66768e-09
1.67302e-05
3.26082e-08
1.67236e-05
2.85687e-08
1.67175e-05
1.32028e-08
1.67203e-05
4.04712e-08
1.67221e-05
6.81323e-08
1.67193e-05
7.03355e-08
1.67174e-05
6.32305e-08
1.67178e-05
6.45379e-08
1.67179e-05
6.444e-08
1.67172e-05
6.54365e-08
1.67166e-05
6.64396e-08
1.67163e-05
6.66086e-08
1.67165e-05
6.50955e-08
1.67172e-05
6.38928e-08
1.67188e-05
6.31445e-08
1.67208e-05
6.24821e-08
1.67231e-05
6.02739e-08
5.78881e-08
1.67256e-05
1.75296e-05
-1.38062e-09
1.75281e-05
4.19449e-09
1.75296e-05
3.10279e-08
1.75244e-05
3.37706e-08
1.75174e-05
2.01986e-08
1.75186e-05
3.93386e-08
1.75215e-05
6.52467e-08
1.75199e-05
7.19006e-08
1.75175e-05
6.56334e-08
1.75171e-05
6.49147e-08
1.75172e-05
6.43085e-08
1.75171e-05
6.5598e-08
1.7517e-05
6.6499e-08
1.7517e-05
6.66136e-08
1.75173e-05
6.47678e-08
1.75182e-05
6.30054e-08
1.75199e-05
6.15057e-08
1.7522e-05
6.03579e-08
1.75241e-05
5.81221e-08
5.53518e-08
1.75267e-05
1.83678e-05
-8.60539e-10
1.83657e-05
6.30738e-09
1.83671e-05
2.96639e-08
1.83633e-05
3.75287e-08
1.83562e-05
2.73258e-08
1.83556e-05
3.99393e-08
1.83586e-05
6.22144e-08
1.83583e-05
7.22051e-08
1.83561e-05
6.78707e-08
1.8355e-05
6.59832e-08
1.83549e-05
6.43923e-08
1.83551e-05
6.53867e-08
1.83555e-05
6.61604e-08
1.83559e-05
6.61792e-08
1.83564e-05
6.42489e-08
1.83575e-05
6.19747e-08
1.83591e-05
5.98354e-08
1.83613e-05
5.817e-08
1.83635e-05
5.59829e-08
5.28735e-08
1.83659e-05
1.92461e-05
-5.26458e-10
1.92437e-05
8.70193e-09
1.92445e-05
2.88623e-08
1.9242e-05
4.00409e-08
1.92354e-05
3.3915e-08
1.92333e-05
4.20023e-08
1.92357e-05
5.98009e-08
1.92364e-05