/*--------------------------------*- C++ -*----------------------------------*\
| =========                 |                                                 |
| \\      /  F ield         | OpenFOAM: The Open Source CFD Toolbox           |
|  \\    /   O peration     | Version:  3.0.1                                 |
|   \\  /    A nd           | Web:      www.OpenFOAM.org                      |
|    \\/     M anipulation  |                                                 |
\*---------------------------------------------------------------------------*/
FoamFile
{
    version     2.0;
    format      ascii;
    class       volVectorField;
    location    "2";
    object      U;
}
// * * * * * * * * * * * * * * * * * * * * * * * * * * * * * * * * * * * * * //

dimensions      [0 1 -1 0 0 0 0];

internalField   nonuniform List<vector> 
9600
(
(0.863209 0.000456707 0)
(1.13672 -0.00186628 0)
(0.886846 0.00620157 0)
(1.10929 -0.00341719 0)
(0.815864 -0.00454903 0)
(1.17613 -0.00105067 0)
(0.890507 0.000695424 0)
(1.07086 0.00432861 0)
(0.901824 0.00975088 0)
(1.06449 -0.00480833 0)
(0.859511 0.00680417 0)
(1.10174 -0.0126888 0)
(0.834992 -0.00370262 0)
(1.13769 -0.00585033 0)
(0.827785 -0.00551915 0)
(1.14417 -0.000485361 0)
(0.842395 -0.00223959 0)
(1.12754 0.00189901 0)
(0.8439 0.00389232 0)
(1.11712 0.00805908 0)
(0.872574 0.000376771 0)
(1.1258 -0.00186862 0)
(0.895503 0.00621177 0)
(1.09579 -0.00257855 0)
(0.83174 -0.00548167 0)
(1.15899 -0.00166682 0)
(0.905202 0.00173462 0)
(1.05757 0.00451767 0)
(0.916719 0.0096097 0)
(1.04555 -0.00391336 0)
(0.883852 0.00589071 0)
(1.07026 -0.0118727 0)
(0.869127 -0.00494599 0)
(1.09441 -0.0054482 0)
(0.87933 -0.00605423 0)
(1.0879 -0.000590354 0)
(0.914725 -0.00165444 0)
(1.04891 0.00125528 0)
(0.946012 0.00544555 0)
(0.9988 0.00639535 0)
(0.890606 0.000322619 0)
(1.10547 -0.00189059 0)
(0.912244 0.00633601 0)
(1.07479 -0.0019606 0)
(0.861749 -0.00623895 0)
(1.12728 -0.002133 0)
(0.932025 0.00265571 0)
(1.0344 0.00451355 0)
(0.939245 0.0096304 0)
(1.02177 -0.00341496 0)
(0.918593 0.00534076 0)
(1.03676 -0.0115309 0)
(0.917002 -0.00544726 0)
(1.04507 -0.005589 0)
(0.939801 -0.00585839 0)
(1.03158 -0.00150354 0)
(0.971299 -0.000795035 0)
(1.00184 0.000734481 0)
(0.982885 0.00615985 0)
(0.980649 0.00696496 0)
(0.914349 0.000302646 0)
(1.07953 -0.00192635 0)
(0.933419 0.00647263 0)
(1.05164 -0.00151704 0)
(0.898937 -0.00675062 0)
(1.08876 -0.00264992 0)
(0.961252 0.00343626 0)
(1.01197 0.00454965 0)
(0.959804 0.00968896 0)
(1.00396 -0.00313455 0)
(0.949132 0.00505282 0)
(1.01365 -0.0114658 0)
(0.954442 -0.00556053 0)
(1.01368 -0.00605585 0)
(0.977113 -0.00555313 0)
(1.00556 -0.00215556 0)
(0.993233 -0.000238877 0)
(0.994386 0.00076355 0)
(0.988349 0.00639676 0)
(0.986357 0.00792662 0)
(0.939515 0.00031017 0)
(1.05311 -0.00197108 0)
(0.954469 0.0066002 0)
(1.03139 -0.00121078 0)
(0.934354 -0.00708722 0)
(1.0529 -0.00317322 0)
(0.98372 0.00408946 0)
(0.998089 0.00471165 0)
(0.974463 0.00971005 0)
(0.995876 -0.00297366 0)
(0.969627 0.00484438 0)
(1.0031 -0.0114672 0)
(0.97517 -0.00557263 0)
(1.00057 -0.00650432 0)
(0.992327 -0.00536523 0)
(0.999588 -0.0025224 0)
(0.99915 2.11672e-05 0)
(0.997334 0.000975227 0)
(0.991451 0.00659392 0)
(0.989515 0.00870416 0)
(0.961984 0.000336702 0)
(1.03077 -0.00201069 0)
(0.971852 0.00670552 0)
(1.01716 -0.00104238 0)
(0.961998 -0.00725713 0)
(1.02604 -0.00359841 0)
(0.996052 0.00455877 0)
(0.993228 0.00493452 0)
(0.984301 0.0096815 0)
(0.995044 -0.00288744 0)
(0.981836 0.00466979 0)
(1.00053 -0.0114445 0)
(0.984641 -0.0055663 0)
(0.996385 -0.00682861 0)
(0.996473 -0.00532162 0)
(0.99881 -0.0027432 0)
(1.00054 0.000143677 0)
(0.998967 0.00115947 0)
(0.994348 0.00679595 0)
(0.991361 0.00939415 0)
(0.979149 0.000370448 0)
(1.01491 -0.00203213 0)
(0.984126 0.00676342 0)
(1.00922 -0.000975292 0)
(0.980447 -0.0072864 0)
(1.00941 -0.00388962 0)
(1.0001 0.00481361 0)
(0.993424 0.00514023 0)
(0.991437 0.0096145 0)
(0.997454 -0.00282768 0)
(0.989409 0.0045261 0)
(1.00119 -0.0113689 0)
(0.989069 -0.00551355 0)
(0.994934 -0.00706706 0)
(0.996605 -0.00533633 0)
(0.997727 -0.00290621 0)
(1.00014 0.000135016 0)
(0.998752 0.00138467 0)
(0.995546 0.00693919 0)
(0.992739 0.0100296 0)
(0.990416 0.000401003 0)
(1.00539 -0.0020328 0)
(0.991757 0.0067673 0)
(1.00578 -0.000966902 0)
(0.991346 -0.00722031 0)
(1.00067 -0.00405588 0)
(0.999638 0.00490244 0)
(0.994905 0.00527568 0)
(0.996877 0.00951785 0)
(1.0004 -0.0027662 0)
(0.994712 0.00440745 0)
(1.00258 -0.0112286 0)
(0.991783 -0.00541444 0)
(0.99427 -0.00721764 0)
(0.995633 -0.00534656 0)
(0.995922 -0.0030438 0)
(0.998552 5.55585e-05 0)
(0.997514 0.00167522 0)
(0.995374 0.0069612 0)
(0.99348 0.0105664 0)
(0.996752 0.00042361 0)
(1.00055 -0.0020183 0)
(0.996101 0.00672854 0)
(1.00473 -0.000989561 0)
(0.997199 -0.00709587 0)
(0.99667 -0.00412078 0)
(0.997723 0.00489439 0)
(0.995974 0.00532152 0)
(1.00081 0.00939387 0)
(1.00271 -0.00270053 0)
(0.99864 0.00430514 0)
(1.00383 -0.0110271 0)
(0.993916 -0.0052907 0)
(0.994079 -0.00725582 0)
(0.994639 -0.00534769 0)
(0.994005 -0.0031262 0)
(0.996402 -5.73063e-05 0)
(0.995716 0.00196684 0)
(0.994457 0.00686021 0)
(0.993623 0.0110015 0)
(0.999763 0.000439139 0)
(0.998452 -0.00199711 0)
(0.998466 0.00666214 0)
(1.00461 -0.00102617 0)
(1.00006 -0.00693571 0)
(0.995048 -0.00411384 0)
(0.995969 0.00483797 0)
(0.996442 0.00528836 0)
(1.00336 0.00924345 0)
(1.00419 -0.00263476 0)
(1.00139 0.00420951 0)
(1.00478 -0.0107759 0)
(0.995653 -0.00515836 0)
(0.994279 -0.00718581 0)
(0.993992 -0.00534498 0)
(0.992447 -0.00311249 0)
(0.994279 -0.000204979 0)
(0.993747 0.00223243 0)
(0.99317 0.00669099 0)
(0.993274 0.011321 0)
(1.00092 0.000450868 0)
(0.997684 -0.00197591 0)
(0.999716 0.0065794 0)
(1.00477 -0.00106625 0)
(1.00127 -0.00675211 0)
(0.994465 -0.00406282 0)
(0.994888 0.00475929 0)
(0.996595 0.00519988 0)
(1.00481 0.00906935 0)
(1.00501 -0.00256894 0)
(1.00308 0.00410901 0)
(1.00545 -0.0104856 0)
(0.996953 -0.00502939 0)
(0.994712 -0.00702656 0)
(0.993734 -0.00533444 0)
(0.99143 -0.00299807 0)
(0.992572 -0.000371222 0)
(0.991957 0.00249637 0)
(0.991794 0.00650458 0)
(0.992564 0.0114866 0)
(1.00121 0.000461605 0)
(0.997475 -0.00195747 0)
(1.00033 0.00648613 0)
(1.00501 -0.00110364 0)
(1.00162 -0.00655262 0)
(0.994289 -0.00398908 0)
(0.994451 0.00466926 0)
(0.996666 0.00507973 0)
(1.00551 0.00887559 0)
(1.0054 -0.0024997 0)
(1.00393 0.00399504 0)
(1.00585 -0.0101616 0)
(0.997823 -0.00491923 0)
(0.995189 -0.00679211 0)
(0.99377 -0.00532316 0)
(0.990916 -0.00280209 0)
(0.991444 -0.00053527 0)
(0.990583 0.00276635 0)
(0.99058 0.00634357 0)
(0.99171 0.0114844 0)
(1.00118 0.000472781 0)
(0.997474 -0.00194159 0)
(1.0006 0.0063841 0)
(1.00525 -0.00113542 0)
(1.00157 -0.00634188 0)
(0.994253 -0.00390659 0)
(0.994452 0.00457051 0)
(0.996739 0.0049467 0)
(1.00573 0.00866523 0)
(1.00552 -0.00242208 0)
(1.00421 0.00386309 0)
(1.00603 -0.00980777 0)
(0.998355 -0.00483805 0)
(0.995575 -0.00649393 0)
(0.99398 -0.00532201 0)
(0.990763 -0.00254376 0)
(0.99087 -0.000682115 0)
(0.98971 0.00302249 0)
(0.989702 0.00624864 0)
(0.990953 0.0113389 0)
(1.00108 0.000484766 0)
(0.997535 -0.00192708 0)
(1.00067 0.0062738 0)
(1.00544 -0.00116168 0)
(1.00141 -0.00612135 0)
(0.994262 -0.00382166 0)
(0.994678 0.00446277 0)
(0.996824 0.00481372 0)
(1.00568 0.00844039 0)
(1.0055 -0.00233189 0)
(1.00419 0.00370952 0)
(1.00602 -0.00942472 0)
(0.998672 -0.00478824 0)
(0.995821 -0.00614673 0)
(0.994267 -0.00533815 0)
(0.990824 -0.00223149 0)
(0.990716 -0.000775137 0)
(0.989296 0.00324319 0)
(0.989213 0.00625056 0)
(0.990457 0.0110927 0)
(1.00099 0.000497401 0)
(0.997602 -0.00191269 0)
(1.00068 0.00615559 0)
(1.00554 -0.00118295 0)
(1.00127 -0.00589291 0)
(0.994293 -0.00373576 0)
(0.99498 0.00434498 0)
(0.996908 0.00468746 0)
(1.00551 0.00820281 0)
(1.0054 -0.00222772 0)
(1.00404 0.0035342 0)
(1.0059 -0.00901323 0)
(0.998879 -0.00476862 0)
(0.995943 -0.00576275 0)
(0.994569 -0.00536321 0)
(0.990992 -0.00190004 0)
(0.990823 -0.000812903 0)
(0.989235 0.00340169 0)
(0.989066 0.00635369 0)
(0.990264 0.0107865 0)
(1.00095 0.000510303 0)
(0.997662 -0.00189746 0)
(1.00067 0.00603014 0)
(1.00552 -0.00119969 0)
(1.00118 -0.00565932 0)
(0.994354 -0.00364759 0)
(0.995276 0.00421648 0)
(0.996983 0.0045715 0)
(1.0053 0.00795054 0)
(1.00525 -0.00210739 0)
(1.00384 0.00333767 0)
(1.0057 -0.00857434 0)
(0.999041 -0.00477553 0)
(0.99598 -0.00535061 0)
(0.994853 -0.00539034 0)
(0.991204 -0.00156794 0)
(0.991058 -0.000791615 0)
(0.989407 0.00347913 0)
(0.989165 0.00653411 0)
(0.990329 0.0104595 0)
(1.00093 0.000523121 0)
(0.997719 -0.00188096 0)
(1.00067 0.00589848 0)
(1.00541 -0.0012121 0)
(1.00113 -0.00542358 0)
(0.994451 -0.0035539 0)
(0.995538 0.00407569 0)
(0.997049 0.00446829 0)
(1.00511 0.00768214 0)
(1.0051 -0.00197032 0)
(1.00365 0.00312067 0)
(1.00547 -0.00810853 0)
(0.999191 -0.00480465 0)
(0.995973 -0.0049171 0)
(0.995108 -0.00541071 0)
(0.991434 -0.00125645 0)
(0.991336 -0.00070086 0)
(0.989715 0.00348279 0)
(0.989418 0.00675703 0)
(0.99057 0.0101502 0)
(1.00093 0.000535539 0)
(0.997782 -0.00186291 0)
(1.00068 0.00576119 0)
(1.00525 -0.00121969 0)
(1.00112 -0.00518889 0)
(0.994585 -0.00345226 0)
(0.995765 0.00392244 0)
(0.997109 0.00437736 0)
(1.00493 0.00739728 0)
(1.00494 -0.00181639 0)
(1.00346 0.0028861 0)
(1.00523 -0.00762138 0)
(0.999337 -0.0048503 0)
(0.995951 -0.00446892 0)
(0.995332 -0.00541435 0)
(0.991674 -0.000991065 0)
(0.991614 -0.000520876 0)
(0.990101 0.00343368 0)
(0.989755 0.00698267 0)
(0.990913 0.00988308 0)
(1.00092 0.000547231 0)
(0.997861 -0.00184313 0)
(1.00068 0.00561876 0)
(1.00506 -0.0012219 0)
(1.0011 -0.00495793 0)
(0.99475 -0.00334104 0)
(0.995967 0.00375666 0)
(0.997174 0.00429882 0)
(1.00475 0.00709529 0)
(1.00481 -0.00164835 0)
(1.00328 0.00263838 0)
(1.00499 -0.00711667 0)
(0.999479 -0.00490528 0)
(0.995931 -0.00402457 0)
(0.995529 -0.00538353 0)
(0.99193 -0.000787092 0)
(0.991874 -0.000250744 0)
(0.990527 0.00335084 0)
(0.990136 0.00717357 0)
(0.991302 0.00967378 0)
(1.0009 0.000558066 0)
(0.997963 -0.00182177 0)
(1.00068 0.00547144 0)
(1.00488 -0.0012174 0)
(1.00106 -0.00473373 0)
(0.994938 -0.00321715 0)
(0.996149 0.00357639 0)
(0.997253 0.00423248 0)
(1.00458 0.0067778 0)
(1.00469 -0.00146674 0)
(1.00309 0.00237915 0)
(1.00476 -0.00660306 0)
(0.999613 -0.00495549 0)
(0.995922 -0.00360227 0)
(0.995699 -0.00529178 0)
(0.992208 -0.000645157 0)
(0.992116 7.68832e-05 0)
(0.990978 0.00325442 0)
(0.990541 0.00730618 0)
(0.991703 0.00953174 0)
(1.00084 0.000567777 0)
(0.998089 -0.00179831 0)
(1.00066 0.00531849 0)
(1.00471 -0.00120472 0)
(1.00101 -0.00451748 0)
(0.995144 -0.00307919 0)
(0.996315 0.00338125 0)
(0.997351 0.00417753 0)
(1.0044 0.0064465 0)
(1.00459 -0.00127444 0)
(1.00289 0.00211733 0)
(1.00453 -0.00609687 0)
(0.999735 -0.00498695 0)
(0.995931 -0.00320589 0)
(0.995846 -0.00513702 0)
(0.992516 -0.000556394 0)
(0.99234 0.00043847 0)
(0.991443 0.00316426 0)
(0.990961 0.00736507 0)
(0.992098 0.00945189 0)
(1.00077 0.000575977 0)
(0.998235 -0.00177229 0)
(1.00063 0.00515927 0)
(1.00455 -0.00118253 0)
(1.00093 -0.00431156 0)
(0.995365 -0.00292546 0)
(0.996466 0.00317072 0)
(0.997469 0.00413345 0)
(1.0042 0.00610428 0)
(1.00451 -0.00107871 0)
(1.00268 0.00186197 0)
(1.00432 -0.00560179 0)
(0.999848 -0.00499557 0)
(0.99596 -0.00284127 0)
(0.995969 -0.00492678 0)
(0.992853 -0.00052282 0)
(0.992553 0.000808154 0)
(0.991915 0.00309515 0)
(0.991396 0.0073431 0)
(0.992479 0.00941735 0)
(1.00068 0.000582921 0)
(0.998393 -0.00174415 0)
(1.00059 0.00499375 0)
(1.00441 -0.00114958 0)
(1.00084 -0.00411872 0)
(0.995595 -0.00275511 0)
(0.996605 0.00294447 0)
(0.997603 0.00409974 0)
(1.00399 0.00575488 0)
(1.00443 -0.000884354 0)
(1.00246 0.00162045 0)
(1.00411 -0.00512631 0)
(0.999953 -0.00497341 0)
(0.996009 -0.00251087 0)
(0.996072 -0.00465984 0)
(0.993218 -0.00051866 0)
(0.99276 0.00117669 0)
(0.992385 0.00306044 0)
(0.991848 0.00724227 0)
(0.992843 0.0094065 0)
(1.00058 0.000588181 0)
(0.998553 -0.00171255 0)
(1.00054 0.00482054 0)
(1.00428 -0.00110384 0)
(1.00075 -0.00394108 0)
(0.995829 -0.0025696 0)
(0.996736 0.00270711 0)
(0.997745 0.00407059 0)
(1.00377 0.00540574 0)
(1.00437 -0.000701129 0)
(1.00225 0.00140243 0)
(1.0039 -0.00468232 0)
(1.00006 -0.00491895 0)
(0.996077 -0.00221737 0)
(0.99616 -0.00433601 0)
(0.993608 -0.000533801 0)
(0.992971 0.00153308 0)
(0.992842 0.00306945 0)
(0.992319 0.00706929 0)
(0.993195 0.00939519 0)
(1.00049 0.000591139 0)
(0.998705 -0.00167643 0)
(1.0005 0.00463786 0)
(1.00415 -0.00104343 0)
(1.00066 -0.00377874 0)
(0.996064 -0.00237129 0)
(0.996864 0.00246257 0)
(0.997889 0.00404181 0)
(1.00354 0.00506339 0)
(1.0043 -0.000537062 0)
(1.00204 0.0012151 0)
(1.0037 -0.00426628 0)
(1.00016 -0.00483702 0)
(0.996165 -0.00195632 0)
(0.996239 -0.00396579 0)
(0.994017 -0.000560027 0)
(0.993196 0.00186622 0)
(0.993275 0.0031273 0)
(0.992809 0.00683321 0)
(0.993541 0.00935872 0)
(1.00042 0.000592392 0)
(0.99884 -0.00163628 0)
(1.00046 0.00444526 0)
(1.00402 -0.000967359 0)
(1.00059 -0.00363105 0)
(0.996293 -0.00216014 0)
(0.996998 0.00221072 0)
(0.998026 0.00400803 0)
(1.00331 0.00473632 0)
(1.00422 -0.000397346 0)
(1.00184 0.00106224 0)
(1.00348 -0.00387126 0)
(1.00028 -0.00472295 0)
(0.996271 -0.00172 0)
(0.996314 -0.00355836 0)
(0.994438 -0.000588573 0)
(0.993442 0.00216583 0)
(0.993677 0.00323553 0)
(0.993315 0.00654706 0)
(0.993889 0.00927605 0)
(1.00036 0.000590983 0)
(0.998957 -0.00158918 0)
(1.00043 0.00424032 0)
(1.00387 -0.000876508 0)
(1.00053 -0.00349756 0)
(0.996513 -0.00193976 0)
(0.997141 0.00195828 0)
(0.998154 0.0039638 0)
(1.0031 0.0044294 0)
(1.00413 -0.000294469 0)
(1.00166 0.000939342 0)
(1.00325 -0.00349355 0)
(1.0004 -0.00458825 0)
(0.996394 -0.00150536 0)
(0.996387 -0.00312091 0)
(0.994868 -0.000607663 0)
(0.99372 0.0024185 0)
(0.994043 0.00339617 0)
(0.993829 0.00623327 0)
(0.994254 0.00912369 0)
(1.00032 0.000586791 0)
(0.999058 -0.00153528 0)
(1.00041 0.0040233 0)
(1.00372 -0.000770795 0)
(1.00049 -0.00337714 0)
(0.996723 -0.00171233 0)
(0.997296 0.0017125 0)
(0.998272 0.00390319 0)
(1.00289 0.00414845 0)
(1.00403 -0.000230081 0)
(1.0015 0.00084677 0)
(1.00301 -0.00313428 0)
(1.00053 -0.00444424 0)
(0.996537 -0.00130654 0)
(0.99646 -0.00265987 0)
(0.995299 -0.00060966 0)
(0.994035 0.00260538 0)
(0.994373 0.00360233 0)
(0.994341 0.00592454 0)
(0.994648 0.00887226 0)
(1.00029 0.000580027 0)
(0.999146 -0.00147412 0)
(1.0004 0.00379361 0)
(1.00355 -0.000650093 0)
(1.00047 -0.0032706 0)
(0.996921 -0.00147944 0)
(0.997464 0.00148072 0)
(0.998381 0.00381203 0)
(1.00269 0.00390969 0)
(1.00391 -0.000192562 0)
(1.00136 0.000778913 0)
(1.00277 -0.00278116 0)
(1.00066 -0.00428586 0)
(0.996699 -0.00112885 0)
(0.996531 -0.00217574 0)
(0.995723 -0.000581675 0)
(0.994392 0.00272069 0)
(0.994673 0.00383785 0)
(0.994833 0.00566433 0)
(0.995081 0.00850934 0)
(1.00027 0.00056936 0)
(0.999228 -0.00140227 0)
(1.00039 0.00354913 0)
(1.00338 -0.000519407 0)
(1.00045 -0.00317103 0)
(0.997108 -0.00125487 0)
(0.997642 0.00127145 0)
(0.998486 0.00369049 0)
(1.00251 0.00370737 0)
(1.0038 -0.000177469 0)
(1.00124 0.000724609 0)
(1.00251 -0.00241613 0)
(1.00079 -0.00410776 0)
(0.996885 -0.000980058 0)
(0.996601 -0.00167603 0)
(0.996134 -0.000514226 0)
(0.99479 0.00276909 0)
(0.994955 0.00407689 0)
(0.995287 0.00548888 0)
(0.995549 0.00806163 0)
(1.00026 0.000555168 0)
(0.999306 -0.00132127 0)
(1.00039 0.00329396 0)
(1.00321 -0.000382299 0)
(1.00044 -0.00307356 0)
(0.997285 -0.00104555 0)
(0.997827 0.00108946 0)
(0.998591 0.00353432 0)
(1.00233 0.0035335 0)
(1.00367 -0.00017562 0)
(1.00114 0.00067244 0)
(1.00226 -0.00204712 0)
(1.00091 -0.00390594 0)
(0.997094 -0.000855639 0)
(0.996671 -0.00117321 0)
(0.996521 -0.000406902 0)
(0.995225 0.00275776 0)
(0.995235 0.00428626 0)
(0.995692 0.0054055 0)
(0.996037 0.00758174 0)
(1.00025 0.000537282 0)
(0.999382 -0.00123062 0)
(1.0004 0.00302904 0)
(1.00303 -0.000241079 0)
(1.00043 -0.00297567 0)
(0.997452 -0.000851535 0)
(0.998012 0.00094345 0)
(0.9987 0.00333989 0)
(1.00215 0.00338592 0)
(1.00355 -0.000175032 0)
(1.00106 0.000615513 0)
(1.00201 -0.00167988 0)
(1.00101 -0.00367364 0)
(0.99733 -0.000752757 0)
(0.996742 -0.000679955 0)
(0.996878 -0.000253931 0)
(0.99569 0.00270022 0)
(0.995526 0.00443874 0)
(0.996043 0.00539599 0)
(0.996519 0.00713529 0)
(1.00024 0.00051514 0)
(0.999456 -0.00113077 0)
(1.00042 0.0027591 0)
(1.00285 -0.000103378 0)
(1.00043 -0.00286864 0)
(0.997613 -0.000680843 0)
(0.998194 0.000834944 0)
(0.998815 0.00311987 0)
(1.00199 0.0032525 0)
(1.00343 -0.000168014 0)
(1.001 0.00054842 0)
(1.00176 -0.00130909 0)
(1.00111 -0.00340234 0)
(0.997591 -0.000672694 0)
(0.99682 -0.000216067 0)
(0.997199 -5.78626e-05 0)
(0.996175 0.00261309 0)
(0.99584 0.0045256 0)
(0.99635 0.0054269 0)
(0.996966 0.00677708 0)
(1.00022 0.000489035 0)
(0.999528 -0.0010231 0)
(1.00044 0.00248637 0)
(1.00267 2.29733e-05 0)
(1.00042 -0.00274292 0)
(0.99777 -0.000543907 0)
(0.998368 0.000761247 0)
(0.998936 0.00288043 0)
(1.00183 0.0031252 0)
(1.0033 -0.000146435 0)
(1.00096 0.000478623 0)
(1.00153 -0.000944877 0)
(1.00118 -0.00309286 0)
(0.997876 -0.000608458 0)
(0.996911 0.000211539 0)
(0.99748 0.000182373 0)
(0.996667 0.00251576 0)
(0.996184 0.00455422 0)
(0.996628 0.00546361 0)
(0.997363 0.00652215 0)
(1.00021 0.000458865 0)
(0.999595 -0.000910335 0)
(1.00046 0.00221665 0)
(1.0025 0.000135461 0)
(1.00041 -0.00260069 0)
(0.997924 -0.000431204 0)
(0.998534 0.000713809 0)
(0.999061 0.00263065 0)
(1.00167 0.00299653 0)
(1.00317 -0.00010363 0)
(1.00094 0.000413814 0)
(1.00131 -0.000597925 0)
(1.00124 -0.00274121 0)
(0.998181 -0.00056506 0)
(0.997021 0.00058355 0)
(0.997722 0.000455271 0)
(0.997156 0.00241599 0)
(0.99656 0.0045314 0)
(0.996891 0.00548062 0)
(0.997703 0.00634123 0)
(1.00019 0.000425908 0)
(0.999658 -0.000793946 0)
(1.00048 0.00195333 0)
(1.00233 0.000229339 0)
(1.00041 -0.00244481 0)
(0.998078 -0.000340753 0)
(0.99869 0.000689193 0)
(0.999188 0.00238549 0)
(1.00153 0.00286668 0)
(1.00303 -4.4558e-05 0)
(1.00094 0.000356415 0)
(1.00112 -0.000271943 0)
(1.00126 -0.00235427 0)
(0.998499 -0.000530916 0)
(0.997159 0.000898903 0)
(0.997928 0.00075766 0)
(0.997632 0.00232518 0)
(0.996966 0.00446184 0)
(0.997152 0.0054759 0)
(0.997996 0.00619436 0)
(1.00018 0.000389511 0)
(0.999714 -0.000677493 0)
(1.00051 0.00170182 0)
(1.00217 0.000298992 0)
(1.00039 -0.00227559 0)
(0.99823 -0.000273011 0)
(0.998837 0.000688945 0)
(0.999316 0.00214911 0)
(1.0014 0.00273418 0)
(1.0029 4.27684e-05 0)
(1.00096 0.000317425 0)
(1.00094 2.12854e-05 0)
(1.00127 -0.00195261 0)
(0.998823 -0.000487644 0)
(0.99733 0.00115187 0)
(0.9981 0.00107608 0)
(0.998085 0.00225283 0)
(0.997402 0.00434328 0)
(0.997418 0.00546129 0)
(0.998252 0.00606457 0)
(1.00017 0.000350362 0)
(0.999765 -0.000562645 0)
(1.00054 0.00146597 0)
(1.00202 0.00034435 0)
(1.00038 -0.00209546 0)
(0.998382 -0.000215103 0)
(0.998975 0.000701402 0)
(0.999443 0.00193657 0)
(1.00129 0.00259681 0)
(1.00276 0.000163772 0)
(1.00099 0.0002896 0)
(1.00079 0.000264919 0)
(1.00125 -0.00154974 0)
(0.999145 -0.000434904 0)
(0.997536 0.0013316 0)
(0.998247 0.00139144 0)
(0.998502 0.00221679 0)
(0.997866 0.0041756 0)
(0.9977 0.00542829 0)
(0.998477 0.00595338 0)
(1.00016 0.000309542 0)
(0.999809 -0.000450099 0)
(1.00056 0.00124385 0)
(1.00188 0.00037021 0)
(1.00037 -0.00191269 0)
(0.998533 -0.000169628 0)
(0.999104 0.000728971 0)
(0.999568 0.00176001 0)
(1.0012 0.0024595 0)
(1.00263 0.000302755 0)
(1.00103 0.000275329 0)
(1.00068 0.000461413 0)
(1.00122 -0.00115741 0)
(0.999458 -0.000366163 0)
(0.99778 0.00145017 0)
(0.998379 0.0016979 0)
(0.998874 0.00223787 0)
(0.998348 0.00397364 0)
(0.998008 0.00535112 0)
(0.998675 0.00586756 0)
(1.00014 0.000266219 0)
(0.999847 -0.000341646 0)
(1.00058 0.0010384 0)
(1.00174 0.000379929 0)
(1.00036 -0.00173065 0)
(0.998682 -0.000141565 0)
(0.999226 0.000772532 0)
(0.999689 0.0016223 0)
(1.00112 0.00232647 0)
(1.00249 0.000442062 0)
(1.00107 0.000286926 0)
(1.00059 0.00061954 0)
(1.00117 -0.000782459 0)
(0.999755 -0.000275393 0)
(0.998061 0.00152006 0)
(0.99851 0.00197688 0)
(0.999192 0.00231301 0)
(0.998832 0.00376298 0)
(0.998354 0.00521095 0)
(0.998859 0.00579881 0)
(1.00013 0.000222658 0)
(0.999878 -0.000240075 0)
(1.0006 0.00085101 0)
(1.00162 0.000369398 0)
(1.00034 -0.0015426 0)
(0.998832 -0.000128016 0)
(0.999344 0.000818066 0)
(0.999805 0.00152828 0)
(1.00106 0.00220005 0)
(1.00237 0.000573056 0)
(1.00112 0.000325665 0)
(1.00053 0.000748361 0)
(1.00112 -0.000427093 0)
(1.00003 -0.00015666 0)
(0.998374 0.00155509 0)
(0.998651 0.00221468 0)
(0.999458 0.00243202 0)
(0.999299 0.00357773 0)
(0.99874 0.00501133 0)
(0.999049 0.00571563 0)
(1.00012 0.000177733 0)
(0.999904 -0.000144614 0)
(1.00061 0.000682783 0)
(1.00152 0.000342458 0)
(1.00033 -0.0013573 0)
(0.99898 -0.00012975 0)
(0.999463 0.000853594 0)
(0.999914 0.00147759 0)
(1.00101 0.00208931 0)
(1.00225 0.000698679 0)
(1.00117 0.000383259 0)
(1.00049 0.000863777 0)
(1.00106 -9.22956e-05 0)
(1.00028 -1.85947e-05 0)
(0.998713 0.00156154 0)
(0.998813 0.00239981 0)
(0.999677 0.00257495 0)
(0.99973 0.00343741 0)
(0.999159 0.00477411 0)
(0.999266 0.00558794 0)
(1.00011 0.000133808 0)
(0.999923 -5.70713e-05 0)
(1.00062 0.000535364 0)
(1.00142 0.000300134 0)
(1.00031 -0.00117781 0)
(0.999126 -0.000135402 0)
(0.999586 0.000864286 0)
(1.00002 0.00146653 0)
(1.00097 0.00200816 0)
(1.00214 0.000817631 0)
(1.00122 0.000452059 0)
(1.00049 0.000969712 0)
(1.00101 0.000218046 0)
(1.00051 0.000138499 0)
(0.999071 0.00154738 0)
(0.999003 0.00253006 0)
(0.999861 0.00272749 0)
(1.00011 0.00335185 0)
(0.999592 0.0045375 0)
(0.99952 0.00541653 0)
(1.0001 8.8633e-05 0)
(0.999937 2.52703e-05 0)
(1.00062 0.0004055 0)
(1.00133 0.000248988 0)
(1.0003 -0.00100267 0)
(0.999267 -0.000139783 0)
(0.999714 0.000837655 0)
(1.00012 0.00147753 0)
(1.00094 0.00196344 0)
(1.00203 0.000921456 0)
(1.00127 0.00052398 0)
(1.0005 0.00105962 0)
(1.00095 0.000506242 0)
(1.0007 0.000321045 0)
(0.999438 0.00152139 0)
(0.999228 0.00260029 0)
(1.00003 0.00287004 0)
(1.00045 0.00330976 0)
(1.00002 0.00431932 0)
(0.999811 0.00521337 0)
(1.00009 4.81763e-05 0)
(0.999945 9.32853e-05 0)
(1.00062 0.000308132 0)
(1.00126 0.000179099 0)
(1.00028 -0.000810242 0)
(0.999398 -0.000133828 0)
(0.999849 0.000798717 0)
(1.00024 0.00149116 0)
(1.00092 0.00193206 0)
(1.00193 0.00100524 0)
(1.00132 0.000592025 0)
(1.00054 0.00113726 0)
(1.00091 0.000777807 0)
(1.00086 0.000527341 0)
(0.999799 0.00150621 0)
(0.999487 0.00261772 0)
(1.00018 0.00298755 0)
(1.00073 0.00329755 0)
(1.00043 0.00412037 0)
(1.00013 0.00499227 0)
(1.00008 9.86146e-06 0)
(0.99995 0.000148755 0)
(1.0006 0.000240714 0)
(1.0012 0.000101232 0)
(1.00027 -0.000604566 0)
(0.999517 -6.91191e-05 0)
(0.99999 0.000763551 0)
(1.00035 0.00147773 0)
(1.0009 0.00188878 0)
(1.00183 0.00107351 0)
(1.00137 0.000642117 0)
(1.0006 0.00119021 0)
(1.00088 0.00101686 0)
(1.00098 0.000744887 0)
(1.00014 0.00151183 0)
(0.999777 0.00259336 0)
(1.00035 0.00306693 0)
(1.00097 0.00330795 0)
(1.00082 0.00394428 0)
(1.00047 0.00476072 0)
(1.00008 -2.44254e-05 0)
(0.999951 0.000190732 0)
(1.00058 0.000195182 0)
(1.00116 3.19621e-05 0)
(1.00027 -0.00041769 0)
(0.999622 5.84021e-05 0)
(1.00012 0.000722205 0)
(1.00047 0.00140095 0)
(1.00088 0.0018335 0)
(1.00173 0.0011414 0)
(1.00142 0.000692072 0)
(1.00069 0.00122002 0)
(1.00087 0.00122071 0)
(1.00108 0.000973043 0)
(1.00046 0.0015457 0)
(1.00009 0.00254576 0)
(1.00053 0.00309969 0)
(1.00117 0.00332706 0)
(1.00116 0.00379994 0)
(1.00083 0.00452148 0)
(1.00007 -5.23466e-05 0)
(0.99995 0.000213796 0)
(1.00055 0.000183065 0)
(1.00112 -4.0852e-05 0)
(1.00028 -0.000254399 0)
(0.999711 0.000201313 0)
(1.00024 0.000685625 0)
(1.00058 0.00129485 0)
(1.00088 0.00178145 0)
(1.00163 0.00122738 0)
(1.00147 0.000764168 0)
(1.0008 0.00123778 0)
(1.00088 0.00138618 0)
(1.00116 0.00120091 0)
(1.00075 0.00161352 0)
(1.00041 0.00249739 0)
(1.00074 0.00309376 0)
(1.00135 0.00334011 0)
(1.00146 0.00369734 0)
(1.00118 0.00429032 0)
(1.00006 -7.51721e-05 0)
(0.99995 0.000223073 0)
(1.00051 0.000191037 0)
(1.00109 -0.000104206 0)
(1.0003 -0.000127734 0)
(0.999787 0.000348079 0)
(1.00034 0.000677721 0)
(1.00071 0.00119615 0)
(1.0009 0.00172501 0)
(1.00155 0.00131975 0)
(1.0015 0.000847786 0)
(1.00092 0.00124478 0)
(1.00093 0.001501 0)
(1.00124 0.00140012 0)
(1.001 0.00170163 0)
(1.00072 0.00245621 0)
(1.00096 0.00306049 0)
(1.00152 0.00333345 0)
(1.00172 0.00362505 0)
(1.00151 0.00408708 0)
(1.00005 -8.93193e-05 0)
(0.999951 0.000213864 0)
(1.00046 0.000219573 0)
(1.00106 -0.000152868 0)
(1.00034 -4.58648e-05 0)
(0.999855 0.000497261 0)
(1.00041 0.000713593 0)
(1.00082 0.00110149 0)
(1.00094 0.00164464 0)
(1.00147 0.00140524 0)
(1.00152 0.000951368 0)
(1.00104 0.00126229 0)
(1.001 0.00157723 0)
(1.00131 0.00156558 0)
(1.00122 0.00179724 0)
(1.00102 0.00242819 0)
(1.00119 0.00301239 0)
(1.00169 0.00330629 0)
(1.00193 0.00356055 0)
(1.0018 0.00392302 0)
(1.00004 -9.724e-05 0)
(0.999955 0.000191503 0)
(1.00041 0.00025921 0)
(1.00104 -0.000177635 0)
(1.0004 -3.61034e-06 0)
(0.999924 0.000631619 0)
(1.00047 0.000781914 0)
(1.00092 0.00102807 0)
(1.001 0.00154599 0)
(1.00142 0.00147375 0)
(1.00152 0.00107213 0)
(1.00116 0.00128994 0)
(1.00109 0.00162482 0)
(1.00138 0.00169435 0)
(1.00141 0.00188631 0)
(1.00129 0.00241096 0)
(1.00143 0.0029559 0)
(1.00187 0.00326534 0)
(1.00213 0.00349236 0)
(1.00206 0.00379097 0)
(1.00003 -9.71487e-05 0)
(0.999963 0.000158668 0)
(1.00036 0.000302495 0)
(1.00101 -0.000172579 0)
(1.00047 7.54146e-06 0)
(0.999998 0.000738474 0)
(1.0005 0.00087056 0)
(1.00101 0.000984794 0)
(1.00107 0.00143941 0)
(1.00138 0.00151276 0)
(1.00152 0.0011987 0)
(1.00126 0.001335 0)
(1.0012 0.00165741 0)
(1.00147 0.00178966 0)
(1.00158 0.00196448 0)
(1.00155 0.00239977 0)
(1.00167 0.00289319 0)
(1.00204 0.00321122 0)
(1.00231 0.00341953 0)
(1.00228 0.00366981 0)
(1.00002 -9.14993e-05 0)
(0.999974 0.000119929 0)
(1.00032 0.000345978 0)
(1.00097 -0.000131283 0)
(1.00055 -8.61137e-07 0)
(1.00008 0.000801291 0)
(1.00052 0.000971296 0)
(1.00107 0.000978837 0)
(1.00116 0.00133923 0)
(1.00137 0.00151785 0)
(1.00152 0.00131175 0)
(1.00135 0.00140621 0)
(1.00131 0.00168961 0)
(1.00156 0.00185685 0)
(1.00174 0.00202745 0)
(1.00178 0.00239024 0)
(1.0019 0.00282671 0)
(1.00222 0.00314237 0)
(1.00248 0.00334413 0)
(1.00248 0.00355118 0)
(1.00001 -8.02994e-05 0)
(0.99999 8.12885e-05 0)
(1.00027 0.000379827 0)
(1.00093 -5.52841e-05 0)
(1.00063 -1.28483e-05 0)
(1.00018 0.000812328 0)
(1.00054 0.00106548 0)
(1.00111 0.00101197 0)
(1.00123 0.00125936 0)
(1.00139 0.00149464 0)
(1.00153 0.00139812 0)
(1.00143 0.00148414 0)
(1.00141 0.00172834 0)
(1.00165 0.0019042 0)
(1.00188 0.00206858 0)
(1.00198 0.00237702 0)
(1.00212 0.00275943 0)
(1.00239 0.0030628 0)
(1.00263 0.00326545 0)
(1.00265 0.00344326 0)
(1 -6.63726e-05 0)
(1.00001 4.96547e-05 0)
(1.00024 0.000403637 0)
(1.00088 3.56781e-05 0)
(1.0007 -1.41361e-05 0)
(1.0003 0.000783907 0)
(1.00057 0.00113661 0)
(1.00112 0.00107149 0)
(1.0013 0.00120782 0)
(1.00143 0.00145789 0)
(1.00155 0.00145935 0)
(1.0015 0.00155298 0)
(1.00151 0.00177285 0)
(1.00174 0.00194843 0)
(1.00201 0.00209671 0)
(1.00217 0.00235857 0)
(1.00233 0.00269126 0)
(1.00257 0.00297381 0)
(1.00278 0.00317415 0)
(1.00279 0.00334228 0)
(0.999997 -5.15903e-05 0)
(1.00003 2.79183e-05 0)
(1.00022 0.000414446 0)
(1.00083 0.000139518 0)
(1.00077 7.73524e-06 0)
(1.00043 0.000730858 0)
(1.0006 0.00117759 0)
(1.00112 0.00114469 0)
(1.00135 0.00118917 0)
(1.00148 0.0014179 0)
(1.00159 0.00148778 0)
(1.00157 0.00160831 0)
(1.00161 0.0018099 0)
(1.00183 0.00198932 0)
(1.00213 0.0021235 0)
(1.00234 0.00233774 0)
(1.00252 0.00262389 0)
(1.00274 0.00288007 0)
(1.00294 0.00306943 0)
(1.00293 0.0032387 0)
(0.99999 -3.75023e-05 0)
(1.00005 1.85572e-05 0)
(1.00021 0.000408103 0)
(1.00077 0.00024637 0)
(1.00082 6.21666e-05 0)
(1.00056 0.00067065 0)
(1.00066 0.00118042 0)
(1.00112 0.00121771 0)
(1.00139 0.00120607 0)
(1.00153 0.00139025 0)
(1.00164 0.00149311 0)
(1.00164 0.00164673 0)
(1.00171 0.00183836 0)
(1.00191 0.00201515 0)
(1.00223 0.00214545 0)
(1.00248 0.00231666 0)
(1.0027 0.00255629 0)
(1.00289 0.00278647 0)
(1.00308 0.00295576 0)
(1.00305 0.00312355 0)
(0.999984 -2.56944e-05 0)
(1.00007 2.12391e-05 0)
(1.00021 0.000391844 0)
(1.00073 0.000338423 0)
(1.00085 0.000144768 0)
(1.00068 0.000623709 0)
(1.00073 0.00114798 0)
(1.00112 0.00127512 0)
(1.00141 0.00124642 0)
(1.00157 0.00137986 0)
(1.0017 0.00149134 0)
(1.00172 0.00166016 0)
(1.0018 0.00185898 0)
(1.00199 0.00203016 0)
(1.00232 0.00215678 0)
(1.0026 0.00229898 0)
(1.00285 0.00249024 0)
(1.00304 0.00269705 0)
(1.00322 0.00284216 0)
(1.00319 0.00299477 0)
(0.999979 -1.65001e-05 0)
(1.00009 3.40471e-05 0)
(1.00022 0.00037276 0)
(1.00069 0.000414439 0)
(1.00087 0.000242298 0)
(1.0008 0.000597028 0)
(1.00082 0.00109844 0)
(1.00113 0.00130834 0)
(1.00142 0.0012953 0)
(1.00161 0.0013902 0)
(1.00175 0.00149092 0)
(1.00181 0.00165582 0)
(1.00189 0.00185767 0)
(1.00208 0.00203733 0)
(1.0024 0.00215583 0)
(1.0027 0.00227971 0)
(1.00298 0.00242733 0)
(1.00317 0.00260821 0)
(1.00335 0.00273662 0)
(1.00332 0.00285865 0)
(0.999974 -1.052e-05 0)
(1.0001 5.56234e-05 0)
(1.00024 0.000354069 0)
(1.00066 0.000470323 0)
(1.00087 0.000346122 0)
(1.00089 0.000596655 0)
(1.00092 0.00104545 0)
(1.00116 0.00131574 0)
(1.00143 0.00134178 0)
(1.00163 0.00141946 0)
(1.00181 0.00149685 0)
(1.00189 0.00165206 0)
(1.00199 0.00183633 0)
(1.00216 0.00202607 0)
(1.00248 0.002146 0)
(1.00279 0.00225337 0)
(1.0031 0.00236817 0)
(1.00328 0.00251617 0)
(1.00345 0.00263767 0)
(1.00343 0.00272541 0)
(0.999971 -6.3452e-06 0)
(1.00011 8.18879e-05 0)
(1.00026 0.000340906 0)
(1.00064 0.000505805 0)
(1.00087 0.000445072 0)
(1.00097 0.000626767 0)
(1.00102 0.000999728 0)
(1.0012 0.00130087 0)
(1.00144 0.00137594 0)
(1.00165 0.00145439 0)
(1.00185 0.00151075 0)
(1.00196 0.00165002 0)
(1.00209 0.00181265 0)
(1.00225 0.00199249 0)
(1.00255 0.00212197 0)
(1.00286 0.00222034 0)
(1.00319 0.00231008 0)
(1.00339 0.00242363 0)
(1.00354 0.0025375 0)
(1.00353 0.00260185 0)
(0.999968 -4.07617e-06 0)
(1.00012 0.000109664 0)