/*--------------------------------*- C++ -*----------------------------------*\
| =========                 |                                                 |
| \\      /  F ield         | OpenFOAM: The Open Source CFD Toolbox           |
|  \\    /   O peration     | Version:  3.0.1                                 |
|   \\  /    A nd           | Web:      www.OpenFOAM.org                      |
|    \\/     M anipulation  |                                                 |
\*---------------------------------------------------------------------------*/
FoamFile
{
    version     2.0;
    format      ascii;
    class       volScalarField;
    location    "4.6";
    object      p;
}
// * * * * * * * * * * * * * * * * * * * * * * * * * * * * * * * * * * * * * //

dimensions      [0 2 -2 0 0 0 0];

internalField   nonuniform List<scalar> 
9600
(
2.87942e-10
-0.000511234
-0.000139966
0.00209227
0.00196829
0.000212305
0.00130275
0.0058921
0.0050128
0.0071666
0.00648012
0.00855321
0.00958071
0.0105944
0.0105659
0.0121814
0.0145423
0.0168239
0.0182029
0.0228195
-2.20017e-06
-0.000522688
-0.000131367
0.00212511
0.0019336
0.000187757
0.00130638
0.00589302
0.00502576
0.00716257
0.00647417
0.00856296
0.00958473
0.0105966
0.0105637
0.0121738
0.0145416
0.0167608
0.0182466
0.0223783
-4.63429e-06
-0.000533607
-0.000121875
0.00215286
0.00187339
0.000174962
0.0013192
0.00590469
0.00503922
0.00713881
0.00647603
0.00857051
0.00958917
0.0105937
0.010559
0.012163
0.0145363
0.0166998
0.018248
0.0219046
-6.09234e-06
-0.000539939
-0.00010838
0.00216664
0.00181148
0.000197528
0.00134066
0.00592605
0.00506444
0.00709779
0.006489
0.00856963
0.00959323
0.0105847
0.0105518
0.01215
0.0145282
0.0166348
0.0182178
0.0214518
-6.47311e-06
-0.000538862
-8.89003e-05
0.00216525
0.00175848
0.000253942
0.00137329
0.00595707
0.00510639
0.00704336
0.00651267
0.00856208
0.00959678
0.0105699
0.0105423
0.0121326
0.0145184
0.0165634
0.0181621
0.0210166
-5.72472e-06
-0.000527924
-6.24211e-05
0.00214998
0.00172177
0.00033942
0.00141966
0.00599486
0.00516631
0.00698332
0.00654729
0.00855151
0.00959947
0.0105503
0.0105313
0.012111
0.0145081
0.0164864
0.0180822
0.0205936
-3.93434e-06
-0.000506393
-2.9798e-05
0.00212467
0.00170787
0.000448404
0.00148062
0.00603589
0.00524169
0.00692394
0.00659154
0.00854059
0.00960269
0.0105274
0.0105198
0.0120863
0.0144959
0.0164043
0.0179778
0.02018
-1.31648e-06
-0.000474694
7.94605e-06
0.00209437
0.00171732
0.000572857
0.00155346
0.00607692
0.00532874
0.00686758
0.00664297
0.00853077
0.00960593
0.0105021
0.0105079
0.012059
0.0144797
0.0163176
0.017849
0.0197752
1.98069e-06
-0.000433357
5.07231e-05
0.00206349
0.00174345
0.000703622
0.00163257
0.00611545
0.00542333
0.00681389
0.00669898
0.00852245
0.00960907
0.0104748
0.0104952
0.0120292
0.0144581
0.0162265
0.0176971
0.0193789
5.90145e-06
-0.00038263
9.9176e-05
0.00203509
0.00177731
0.000832925
0.00171145
0.00614981
0.00552148
0.00676189
0.00675737
0.00851542
0.00961244
0.0104468
0.0104814
0.011998
0.0144304
0.0161306
0.0175246
0.0189906
1.04565e-05
-0.000322748
0.000153545
0.00201144
0.00181359
0.000955886
0.00178453
0.00617893
0.00561971
0.00671094
0.00681657
0.00850961
0.00961696
0.0104199
0.0104669
0.0119668
0.0143955
0.0160292
0.0173348
0.0186102
1.57892e-05
-0.000254394
0.000212992
0.00199439
0.00185157
0.00107065
0.00184827
0.00620213
0.00571547
0.00666078
0.00687552
0.00850554
0.00962357
0.0103962
0.0104526
0.0119365
0.0143535
0.0159222
0.0171317
0.0182372
2.21769e-05
-0.00017893
0.000276045
0.00198494
0.00189277
0.00117742
0.00190171
0.00621924
0.00580749
0.00661143
0.0069334
0.00850384
0.00963253
0.0103775
0.0104391
0.0119076
0.0143053
0.0158102
0.016918
0.0178706
2.99459e-05
-9.81394e-05
0.000341459
0.00198305
0.00193855
0.00127759
0.00194612
0.00623057
0.00589572
0.00656306
0.00698948
0.00850504
0.00964343
0.0103645
0.0104269
0.0118806
0.014253
0.0156927
0.0166954
0.0175098
3.93817e-05
-1.37325e-05
0.000408656
0.00198771
0.00198885
0.00137276
0.00198482
0.00623677
0.00598094
0.006516
0.0070431
0.00850958
0.00965527
0.010358
0.0104153
0.0118551
0.0141978
0.0155688
0.016465
0.0171563
5.06935e-05
7.2983e-05
0.000477598
0.00199758
0.00204263
0.00146419
0.00202156
0.00623857
0.00606412
0.00647079
0.00709379
0.00851784
0.0096668
0.010354
0.010404
0.0118295
0.0141403
0.0154378
0.016228
0.016812
6.40805e-05
0.000161128
0.000548467
0.00201146
0.00209873
0.0015526
0.00205943
0.00623672
0.00614599
0.00642811
0.0071411
0.00853011
0.00967691
0.010352
0.0103924
0.0118019
0.0140806
0.0153003
0.0159851
0.0164776
7.97543e-05
0.000250091
0.000621503
0.00202856
0.00215632
0.00163834
0.00210044
0.00623196
0.00622694
0.00638865
0.00718462
0.00854665
0.00968488
0.0103506
0.0103805
0.0117705
0.0140184
0.0151574
0.0157358
0.0161525
9.79285e-05
0.00033941
0.000696938
0.00204857
0.00221499
0.00172166
0.00214572
0.006225
0.006307
0.0063531
0.00722401
0.00856746
0.00969062
0.0103487
0.0103683
0.0117339
0.0139528
0.0150109
0.0154793
0.0158348
0.000118832
0.000428737
0.000774971
0.00207141
0.00227467
0.00180279
0.00219572
0.00621643
0.00638604
0.00632208
0.00725892
0.00859227
0.00969432
0.0103451
0.0103561
0.0116912
0.0138826
0.0148627
0.0152157
0.0155222
0.000142707
0.000517765
0.000855804
0.00209721
0.00233536
0.00188184
0.00225059
0.0062069
0.00646389
0.00629612
0.00728907
0.00862091
0.00969624
0.010339
0.0103438
0.0116418
0.0138062
0.0147145
0.0149468
0.0152125
0.000169813
0.000606225
0.000939604
0.00212618
0.00239767
0.00195903
0.00231036
0.00619704
0.00654029
0.00627563
0.00731429
0.00865319
0.00969703
0.0103296
0.0103315
0.0115855
0.0137218
0.0145671
0.0146745
0.0149042
0.000200425
0.000693879
0.00102647
0.00215853
0.00246022
0.00203469
0.00237494
0.00618734
0.00661492
0.00626092
0.00733479
0.00868859
0.00969719
0.0103159
0.0103187
0.0115228
0.0136282
0.0144206
0.0143999
0.0145955
0.000234834
0.0007805
0.00111642
0.00219455
0.00252333
0.00210908
0.0024441
0.00617828
0.00668753
0.00625203
0.00735073
0.00872653
0.00969705
0.0102975
0.0103051
0.0114542
0.0135243
0.0142757
0.0141251
0.0142826
0.000273355
0.000865882
0.00120933
0.00223451
0.002587
0.00218248
0.00251749
0.00617029
0.00675826
0.00624888
0.00736191
0.00876658
0.00969721
0.0102735
0.0102901
0.0113802
0.0134091
0.0141332
0.0138542
0.01396
0.000316305
0.000949884
0.00130503
0.00227867
0.00265115
0.00225526
0.00259462
0.0061635
0.00682732
0.00625166
0.00736823
0.0088081
0.00969845
0.0102437
0.0102729
0.0113016
0.0132813
0.0139929
0.0135946
0.0136253
0.000363984
0.00103245
0.00140332
0.00232731
0.00271573
0.00232778
0.00267513
0.00615783
0.00689464
0.00626072
0.0073698
0.00885012
0.00970152
0.0102077
0.0102529
0.01122
0.0131392
0.0138511
0.0133534
0.0132836
0.000416682
0.00111355
0.00150386
0.00238073
0.00278077
0.00240039
0.00275882
0.00615339
0.00695996
0.00627624
0.00736686
0.00889145
0.00970691
0.0101653
0.0102293
0.0111383
0.0129836
0.013701
0.0131328
0.0129474
0.000474661
0.00119322
0.00160629
0.00243919
0.00284621
0.00247327
0.00284568
0.00615041
0.00702308
0.00629825
0.00735973
0.00893082
0.00971504
0.0101171
0.0102004
0.0110581
0.0128187
0.0135381
0.0129277
0.0126276
0.000538157
0.0012716
0.00171016
0.002503
0.00291213
0.00254655
0.00293564
0.00614906
0.00708383
0.00632669
0.00734868
0.00896695
0.00972612
0.0100639
0.0101645
0.0109791
0.0126492
0.0133635
0.0127307
0.0123273
0.000607409
0.00134896
0.001815
0.00257227
0.00297888
0.0026204
0.00302855
0.00614974
0.00714197
0.00636144
0.00733414
0.00899866
0.00973999
0.0100064
0.0101208
0.0109004
0.0124768
0.0131807
0.012539
0.0120443
0.000682596
0.00142561
0.00192034
0.00264701
0.00304691
0.00269478
0.00312409
0.00615295
0.00719715
0.00640212
0.00731683
0.00902493
0.00975641
0.00994503
0.010069
0.0108229
0.0123026
0.01299
0.0123537
0.0117784
0.000763763
0.00150212
0.00202578
0.00272715
0.00311687
0.00276962
0.00322143
0.00615901
0.00724949
0.00644827
0.00729754
0.0090444
0.00977477
0.00988066
0.0100077
0.0107481
0.0121302
0.0127897
0.0121736
0.0115341
0.000850961
0.00157895
0.00213109
0.00281243
0.00318932
0.00284511
0.00331991
0.00616836
0.00729957
0.0064991
0.00727656
0.0090559
0.00979444
0.00981455
0.00993447
0.010675
0.0119656
0.0125808
0.0119929
0.0113146
0.000944298
0.00165739
0.00223607
0.00290255
0.00326472
0.00292174
0.00341912
0.00618123
0.00734779
0.00655373
0.0072538
0.0090586
0.00981515
0.0097484
0.0098481
0.0105998
0.0118128
0.0123694
0.0118057
0.0111175
0.00104378
0.00173644
0.00234071
0.00299704
0.00334361
0.0030001
0.00351808
0.00619723
0.00739472
0.00661213
0.0072292
0.00905137
0.00983655
0.00968472
0.00974887
0.0105181
0.0116724
0.0121631
0.0116101
0.0109353
0.00114942
0.00181717
0.00244528
0.00309548
0.00342609
0.00308091
0.00361579
0.0062155
0.00744116
0.00667498
0.00720299
0.00903222
0.00985756
0.00962641
0.00963822
0.0104265
0.0115429
0.0119679
0.0114078
0.0107593
0.00126126
0.00189967
0.00255009
0.00319788
0.00351218
0.00316499
0.00371173
0.00623469
0.00748746
0.00674333
0.00717596
0.00899891
0.00987566
0.00957628
0.00951865
0.0103219
0.0114219
0.0117887
0.0112026
0.0105798
0.00137939
0.00198385
0.00265561
0.00330437
0.00360176
0.00325362
0.00380576
0.00625298
0.00753315
0.00681782
0.00714929
0.00895005
0.0098877
0.00953708
0.0093939
0.0102006
0.0113058
0.0116303
0.0110017
0.010389
0.00150399
0.00206949
0.00276222
0.00341531
0.00369376
0.0033485
0.00389888
0.00626906
0.00757704
0.00689861
0.00712516
0.00888475
0.00988996
0.00951104
0.00926893
0.0100592
0.0111877
0.0114955
0.0108179
0.0101859
0.0016353
0.0021565
0.00286995
0.00353134
0.00378683
0.00344959
0.00399294
0.00628221
0.00761742
0.00698562
0.00710676
0.00880323
0.00987799
0.00949816
0.00915038
0.009898
0.0110583
0.0113811
0.010664
0.00997983
0.00177339
0.00224525
0.0029783
0.00365327
0.0038808
0.00355675
0.00408973
0.00629177
0.00765193
0.00707777
0.00709729
0.00870834
0.00984747
0.00949542
0.00904608
0.00972144
0.0109102
0.011279
0.0105467
0.00978898
0.00191828
0.00233635
0.00308628
0.00378222
0.00397669
0.00366742
0.00419055
0.00629859
0.00767817
0.00717278
0.00709896
0.00860393
0.00979589
0.00949861
0.00896142
0.00953548
0.0107391
0.0111801
0.0104656
0.00963239
0.0020701
0.00243075
0.00319221
0.00391889
0.00407653
0.00377862
0.00429573
0.00630509
0.00769419
0.00726754
0.00711313
0.00849402
0.00972301
0.00950336
0.00889843
0.00934641
0.0105421
0.0110764
0.0104156
0.00952306
0.00222867
0.00252966
0.00329393
0.00406279
0.0041835
0.00388674
0.00440452
0.00631509
0.00769959
0.00735785
0.0071401
0.00838384
0.00963012
0.0095048
0.0088584
0.00916287
0.010318
0.0109587
0.0103888
0.00946413
0.00239347
0.00263451
0.00339018
0.00421246
0.0043008
0.00399028
0.00451512
0.00633269
0.00769667
0.00743902
0.00717739
0.00827869
0.00952075
0.00949846
0.00883905
0.00899517
0.0100712
0.0108155
0.0103739
0.00944975
0.002564
0.00274687
0.00348055
0.00436506
0.00443184
0.00408963
0.00462315
0.00635981
0.00768947
0.00750848
0.00722121
0.00818216
0.00939969
0.00948109
0.00883558
0.00885084
0.00981314
0.010639
0.0103573
0.00947049
0.00273947
0.00286832
0.00356519
0.00451655
0.00457973
0.00418715
0.00472185
0.00639528
0.00768375
0.0075666
0.00726826
0.00809583
0.00927119
0.00945119
0.00884253
0.00873303
0.00955692
0.010429
0.0103246
0.0095156
0.0029188
0.00300023
0.00364571
0.00466207
0.0047451
0.00428766
0.00480556
0.00643455
0.0076864
0.00761798
0.00731552
0.00801911
0.00913783
0.00940854
0.00885681
0.0086434
0.0093127
0.010191
0.0102633
0.00957252
0.00310114
0.00314363
0.00372494
0.0047962
0.00492547
0.00439998
0.0048723
0.00646887
0.00770085
0.00767022
0.0073623
0.00795066
0.00900133
0.00935129
0.00887617
0.00858377
0.00909067
0.00993312
0.0101654
0.00962735
0.00328549
0.00329917
0.00380645
0.00491433
0.00511702
0.00453307
0.00492361
0.00648778
0.00772492
0.00773131
0.0074116
0.00788968
0.00886355
0.00927872
0.00889326
0.00855455
0.00890163
0.00966771
0.010028
0.00966506
0.00347051
0.00346715
0.00389416
0.00501353
0.00531298
0.00469301
0.00496547
0.00648259
0.00775137
0.00780697
0.00746965
0.00783639
0.00872569
0.00919202
0.00890403
0.00854936
0.00875403
0.00941206
0.00985502
0.00967277
0.0036557
0.0036474
0.00399197
0.00509308
0.0055031
0.0048825
0.00501104
0.00644996
0.00776729
0.00789739
0.00754449
0.00779484
0.00858871
0.00909213
0.00890404
0.00855891
0.00864833
0.00918214
0.00965905
0.00964363
0.00384045
0.00383867
0.00410367
0.0051545
0.00567622
0.00509815
0.0050775
0.00639332
0.007758
0.00799667
0.00764147
0.00777208
0.008456
0.00897943
0.00889211
0.0085782
0.00857809
0.00898779
0.00945615
0.00957785
0.00402445
0.00403923
0.00423164
0.00520138
0.00582442
0.00533274
0.00517832
0.00632556
0.00771394
0.00809146
0.00776105
0.00777561
0.00833516
0.00885628
0.00889057
0.00860312
0.0085372
0.00883231
0.00926092
0.00948267
0.00420774
0.00424575
0.00437727
0.00523958
0.00594363
0.00557354
0.00531863
0.0062663
0.00763458
0.00816333
0.00789861
0.00781055
0.00823481
0.00872416
0.00883128
0.00862184
0.0085208
0.00871612
0.00908534
0.00936953
0.00439036
0.00445516
0.00454128
0.00527686
0.0060321
0.00580581
0.00549597
0.00623485
0.00752833
0.00819633
0.00804218
0.00787929
0.00816282
0.00859377
0.00875463
0.00862602
0.00852106
0.00863711
0.00893819
0.00925141
0.00457253
0.00466343
0.00472236
0.00532295
0.00609072
0.00601766
0.00570317
0.0062434
0.00741306
0.00818478
0.0081731
0.00797913
0.00812614
0.00847562
0.008667
0.00861137
0.00852628
0.00859003
0.00882351
0.00913896
0.00475472
0.00486549
0.00491727
0.00538674
0.00612635
0.00620078
0.00592697
0.00629504
0.00730884
0.0081325
0.0082725
0.00809903
0.00813025
0.00838004
0.00857442
0.00857963
0.00852739
0.00856613
0.00874189
0.00903936
0.00493722
0.00506098
0.00511976
0.0054723
0.00615066
0.00635067
0.00615207
0.00638687
0.00723194
0.00805357
0.008331
0.00822131
0.00817393
0.00831758
0.00848482
0.00853621
0.00852082
0.00855589
0.00869203
0.00895977
0.00512045
0.00524986
0.00532259
0.00557999
0.00617511
0.00646806
0.00636531
0.00651148
0.00719157
0.00796648
0.00834913
0.00832877
0.00824637
0.00829432
0.00841062
0.00848218
0.0085046
0.0085498
0.00866774
0.0089068
0.00530457
0.00543246
0.00552007
0.00570744
0.00620879
0.00655713
0.00655734
0.00665825
0.0071902
0.00788793
0.0083343
0.00841076
0.00833306
0.00830883
0.00836359
0.00842992
0.00847997
0.00854016
0.00865722
0.00888071
0.00548876
0.00560926
0.00570938
0.00585029
0.00625741
0.00662545
0.00672285
0.00681534
0.00722574
0.00783068
0.00830049
0.00846392
0.00842089
0.00835323
0.00834838
0.00839131
0.00845282
0.00852592
0.00864986
0.00887343
0.00567183
0.00578157
0.00588916
0.00600205
0.0063237
0.00668255
0.00686081
0.00697158
0.00729223
0.00780172
0.00826295
0.00849089
0.00849946
0.00841925
0.0083649
0.00837314
0.00842797
0.00851215
0.00864265
0.00887382
0.00585252
0.00594989
0.00605925
0.00615654
0.00640716
0.00673702
0.00697321
0.00711859
0.00738144
0.00780256
0.0082341
0.008501
0.00856257
0.00849705
0.00841076
0.00837979
0.00841712
0.00850411
0.0086403
0.00887827
0.00602948
0.0061146
0.00622003
0.00630874
0.00650503
0.00679519
0.00706459
0.00725059
0.00748437
0.00783183
0.00822224
0.00850695
0.00861199
0.00857518
0.00848138
0.00841572
0.00842949
0.00850932
0.00864553
0.00888844
0.00620137
0.00627489
0.00637217
0.0064549
0.00661298
0.0068608
0.00714151
0.00736545
0.00759246
0.00788565
0.00823126
0.00851783
0.00865623
0.00865023
0.00856767
0.00848199
0.00846434
0.00852726
0.00866249
0.0089071
0.00636658
0.00643096
0.00651662
0.0065929
0.0067254
0.00693405
0.00720981
0.00746393
0.00769896
0.00795766
0.00826306
0.00854026
0.00870333
0.00872715
0.00866252
0.00857488
0.00852986
0.00857218
0.00869924
0.00893872
0.00652354
0.00658052
0.00665367
0.00672207
0.00683819
0.00701431
0.00727434
0.00754724
0.00779894
0.0080417
0.00831658
0.00857947
0.0087589
0.00881461
0.00877093
0.00869074
0.00862847
0.0086413
0.00874681
0.00898108
0.00667124
0.00672155
0.00678312
0.0068412
0.00694594
0.0070986
0.00733948
0.00761871
0.00788819
0.00813257
0.00838995
0.0086373
0.00882403
0.00891194
0.00889911
0.00883488
0.00877066
0.00875888
0.00884293
0.00906017
0.00680842
0.00685606
0.00690502
0.0069499
0.00704396
0.00717981
0.00740418
0.00768309
0.00796419
0.00822161
0.00848237
0.00872538
0.00891244
0.00902168
0.00904241
0.00899705
0.00893989
0.00891532
0.00897181
0.0091639
0.00693246
0.00697832
0.00701814
0.00705004
0.00713383
0.00725573
0.00746354
0.00774035
0.00802883
0.00829353
0.00857202
0.00884278
0.00906504
0.0092142
0.00927494
0.00925578
0.00920257
0.00916844
0.00919737
0.00935121
0.00704183
0.00708528
0.00712089
0.00713966
0.00721288
0.00732654
0.0075179
0.00778612
0.00808639
0.00835764
0.00861396
0.00887555
0.00912676
0.00933591
0.00948228
0.0095371
0.00952348
0.00949955
0.00951583
0.00964421
0.00713817
0.00718226
0.00720961
0.0072114
0.00727304
0.00738363
0.00756723
0.00781471
0.00812568
0.00847994
0.00885651
0.00919158
0.00946022
0.00968412
0.00985701
0.00997034
0.0099772
0.00993473
0.00989119
0.00990365
0.00721904
0.0072626
0.00728195
0.00726995
0.00732007
0.00742255
0.00759753
0.00781929
0.00803296
0.00823252
0.0084644
0.00881354
0.00934484
0.00989326
0.0103319
0.0106635
0.0109244
0.0111718
0.0114488
0.0117086
0.0072728
0.00731822
0.00734988
0.00734632
0.00739834
0.0074881
0.00762358
0.00781299
0.00811169
0.00856831
0.0091085
0.009573
0.00993914
0.0102426
0.0104733
0.0106996
0.0109224
0.0111543
0.0113834
0.0115466
0.00729394
0.0073252
0.0073388
0.00732463
0.00737523
0.00750064
0.00775156
0.00810577
0.00849558
0.00884378
0.00916398
0.00941994
0.00968819
0.0100339
0.0104199
0.0108439
0.0113313
0.0117874
0.0121496
0.0123389
0.00731253
0.00739051
0.00746096
0.00751068
0.00762933
0.00780847
0.00804394
0.00830267
0.008602
0.00892267
0.00927791
0.00965794
0.00998164
0.0102544
0.0104514
0.0105161
0.0104748
0.0103706
0.0102438
0.0101681
0.00718459
0.0072421
0.00742817
0.0076024
0.00777204
0.00793267
0.00812722
0.00834638
0.00862474
0.00892736
0.00924171
0.00958694
0.00991732
0.0102509
0.010626
0.0110248
0.011423
0.0117941
0.0121082
0.0123037
0.00721757
0.00730098
0.00751325
0.00771871
0.00793013
0.00811982
0.00832852
0.00853622
0.00878973
0.00908044
0.00937557
0.00970516
0.010045
0.0103514
0.0106614
0.0109507
0.0112167
0.0114651
0.0116712
0.0117756
0.0258179
0.0196966
0.0116689
0.00608716
0.00491795
0.00618512
0.00761085
0.00851235
0.00898201
0.00935116
0.00984078
0.0103415
0.0106506
0.0108453
0.0111101
0.0114563
0.0118005
0.012079
0.0123267
0.0126741
0.0131222
0.0135009
0.0137284
0.0139255
0.0142494
0.0146795
0.0150521
0.0153359
0.0156695
0.016084
0.0164593
0.0167734
0.017119
0.0175329
0.0179841
0.0184587
0.0189567
0.0194443
0.0199096
0.0203746
0.0208214
0.0212345
0.021635
0.0220361
0.022459
0.0229391
0.0234527
0.0239541
0.024455
0.0249996
0.0255599
0.0260875
0.0266129
0.0271954
0.0277746
0.0283061
0.0288522
0.0294264
0.0300049
0.0306003
0.0312369
0.0319034
0.0325982
0.0332881
0.0339698
0.0346101
0.035259
0.0359664
0.0367152
0.0374496
0.0382051
0.0389808
0.0397483
0.0405216
0.0413168
0.0421489
0.042987
0.0438544
0.0447257
0.0456258
0.0465338
0.047477
0.0484317
0.0494089
0.0504183
0.0514461
0.0524932
0.0535402
0.0545941
0.0556884
0.0567864
0.057934
0.0590545
0.0602057
0.0613485
0.0624926
0.0636119
0.0646619
0.0655933
0.0663587
0.0250751
0.0195521
0.0117547
0.00623631
0.00500794
0.00622752
0.00763774
0.00853182
0.00899598
0.00936129
0.00984891
0.0103488
0.0106572
0.0108509
0.0111149
0.0114607
0.0118046
0.0120827
0.0123298
0.0126767
0.0131247
0.0135034
0.0137307
0.0139274
0.014251
0.014681
0.0150536
0.0153372
0.0156706
0.0160851
0.0164604
0.0167744
0.0171199
0.0175337
0.0179849
0.0184595
0.0189574
0.019445
0.0199103
0.0203752
0.0208221
0.0212352
0.0216357
0.0220368
0.0224595
0.0229396
0.0234532
0.0239546
0.0244555
0.0250001
0.0255604
0.026088
0.0266133
0.0271958
0.027775
0.0283065
0.0288525
0.0294268
0.0300052
0.0306006
0.0312372
0.0319037
0.0325984
0.0332884
0.0339701
0.0346104
0.0352593
0.0359666
0.0367154
0.0374498
0.0382052
0.038981
0.0397485
0.0405218
0.041317
0.042149
0.0429872
0.0438545
0.0447258
0.0456259
0.046534
0.0474771
0.0484318
0.049409
0.0504184
0.0514462
0.0524933
0.0535403
0.0545942
0.0556885
0.0567865
0.0579341
0.0590546
0.0602058
0.0613486
0.0624926
0.063612
0.0646619
0.0655933
0.0663586
0.0243838
0.0194018
0.0119189
0.00650448
0.00516305
0.0062826
0.00766205
0.008551
0.00901331
0.00937571
0.00985987
0.0103572
0.0106639
0.0108566
0.0111199
0.0114651
0.0118085
0.0120863
0.0123329
0.0126794
0.0131273
0.0135059
0.0137328
0.0139291
0.0142525
0.0146825
0.015055
0.0153384
0.0156716
0.0160861
0.0164614
0.0167753
0.0171206
0.0175344
0.0179856
0.0184601
0.018958
0.0194457
0.0199109
0.0203759
0.0208227
0.0212358
0.0216362
0.0220373
0.02246
0.0229401
0.0234537
0.0239551
0.024456
0.0250005
0.0255608
0.0260884
0.0266136
0.0271962
0.0277754
0.0283068
0.0288528
0.0294271
0.0300055
0.0306009
0.0312374
0.0319039
0.0325987
0.0332887
0.0339703
0.0346106
0.0352594
0.0359668
0.0367156
0.03745
0.0382054
0.0389812
0.0397487
0.040522
0.0413171
0.0421492
0.0429873
0.0438547
0.0447259
0.045626
0.0465341
0.0474772
0.0484319
0.0494091
0.0504185
0.0514463
0.0524934
0.0535404
0.0545943
0.0556886
0.0567866
0.0579342
0.0590547
0.0602059
0.0613487
0.0624927
0.0636121
0.064662
0.0655933
0.0663586
0.023724
0.0192473
0.0121271
0.00684393
0.0053774
0.006361
0.00769597
0.00857822
0.00903944
0.00939835
0.00987625
0.0103679
0.010672
0.0108643
0.011127
0.0114707
0.011813
0.0120907
0.0123373
0.0126833
0.0131305
0.0135086
0.0137355
0.0139317
0.0142547
0.0146844
0.0150567
0.0153398
0.0156729
0.0160874
0.0164626
0.0167762
0.0171214
0.0175352
0.0179863
0.0184609
0.0189587
0.0194463
0.0199116
0.0203765
0.0208233
0.0212364
0.0216367
0.0220378
0.0224605
0.0229405
0.0234542
0.0239556
0.0244564
0.0250009
0.0255613
0.0260888
0.026614
0.0271966
0.0277758
0.0283072
0.0288531
0.0294274
0.0300058
0.0306012
0.0312377
0.0319042
0.0325989
0.0332889
0.0339706
0.0346108
0.0352596
0.035967
0.0367158
0.0374501
0.0382056
0.0389814
0.0397489
0.0405221
0.0413173
0.0421493
0.0429875
0.0438548
0.0447261
0.0456262
0.0465342
0.0474774
0.048432
0.0494092
0.0504187
0.0514464
0.0524935
0.0535405
0.0545944
0.0556887
0.0567867
0.0579343
0.0590548
0.0602059
0.0613488
0.0624928
0.0636122
0.0646621
0.0655935
0.0663586
0.02307
0.0190755
0.0123466
0.00720659
0.00561709
0.00645188
0.00773515
0.00861159
0.00907398
0.00942979
0.00989905
0.0103818
0.0106823
0.0108751
0.0111375
0.0114787
0.0118187
0.0120963
0.0123437
0.0126891
0.0131345
0.0135116
0.0137391
0.0139359
0.0142585
0.0146871
0.0150588
0.015342
0.015675
0.0160893
0.0164641
0.0167774
0.0171224
0.0175361
0.0179872
0.0184617
0.0189595
0.0194471
0.0199123
0.0203773
0.0208241
0.021237
0.0216373
0.0220383
0.022461
0.022941
0.0234547
0.0239561
0.0244569
0.0250014
0.0255618
0.0260893
0.0266144
0.027197
0.0277763
0.0283076
0.0288535
0.0294277
0.0300061
0.0306014
0.031238
0.0319044
0.0325992
0.0332892
0.0339709
0.0346111
0.0352598
0.0359672
0.036716
0.0374503
0.0382058
0.0389815
0.039749
0.0405223
0.0413174
0.0421495
0.0429876
0.043855
0.0447262
0.0456263
0.0465343
0.0474775
0.0484321
0.0494093
0.0504188
0.0514465
0.0524936
0.0535406
0.0545945
0.0556888
0.0567868
0.0579344
0.0590549
0.060206
0.0613489
0.0624929
0.0636123
0.0646623
0.0655938
0.0663586
0.0224198
0.0188814
0.0125602
0.00757378
0.00586978
0.00654942
0.00777506
0.00864706
0.00911336
0.00946685
0.00992601
0.0103977
0.0106941
0.0108884
0.0111513
0.0114894
0.011826
0.0121036
0.0123526
0.0126972
0.0131393
0.0135146
0.0137436
0.0139423
0.0142642
0.0146908
0.0150617
0.0153452
0.0156784
0.016092
0.0164661
0.0167791
0.0171238
0.0175373
0.0179883
0.0184627
0.0189604
0.0194479
0.0199132
0.0203782
0.0208249
0.0212376
0.0216378
0.0220389
0.0224615
0.0229415
0.0234552
0.0239567
0.0244575
0.025002
0.0255623
0.0260898
0.0266149
0.0271975
0.0277768
0.028308
0.0288539
0.0294281
0.0300065
0.0306018
0.0312383
0.0319048
0.0325995
0.0332896
0.0339713
0.0346114
0.03526
0.0359674
0.0367163
0.0374506
0.038206
0.0389818
0.0397492
0.0405225
0.0413176
0.0421496
0.0429878
0.0438551
0.0447264
0.0456264
0.0465345
0.0474776
0.0484323
0.0494094
0.0504189
0.0514466
0.0524937
0.0535407
0.0545946
0.0556889
0.0567869
0.0579345
0.059055
0.0602061
0.061349
0.062493
0.0636125
0.0646626
0.0655942
0.0663586
0.0217794
0.0186653
0.0127607
0.0079405
0.00613461
0.0066545
0.00781545
0.00868329
0.00915582
0.00950748
0.00995546
0.0104148
0.0107067
0.0109034
0.0111674
0.0115022
0.011835
0.0121126
0.0123638
0.0127073
0.0131447
0.0135174
0.0137487
0.0139505
0.0142719
0.0146956
0.0150652
0.0153496
0.0156831
0.0160958
0.016469
0.0167816
0.0171259
0.0175389
0.0179897
0.0184639
0.0189613
0.0194487
0.0199142
0.0203794
0.0208259
0.0212383
0.0216385
0.0220397
0.0224622
0.022942
0.0234556
0.0239573
0.0244582
0.0250026
0.0255629
0.0260904
0.0266156
0.0271981
0.0277773
0.0283085
0.0288544
0.0294285
0.0300068
0.0306021
0.0312387
0.0319051
0.0325999
0.03329
0.0339718
0.0346117
0.0352603
0.0359676
0.0367166
0.0374509
0.0382062
0.038982
0.0397495
0.0405227
0.0413178
0.0421498
0.042988
0.0438553
0.0447265
0.0456266
0.0465346
0.0474777
0.0484324
0.0494095
0.050419
0.0514468
0.0524939
0.0535409
0.0545947
0.055689
0.056787
0.0579346
0.0590551
0.0602063
0.0613492
0.0624932
0.0636128
0.064663
0.0655949
0.0663587
0.0211556
0.0184288
0.0129439
0.00830423
0.00641254
0.00676997
0.00785744
0.00871984
0.00920064
0.0095511
0.00998711
0.0104331
0.0107202
0.0109194
0.0111848
0.0115163
0.0118451
0.012123
0.0123769
0.0127191
0.0131508
0.0135201
0.0137541
0.0139601
0.0142811
0.0147012
0.0150694
0.0153551
0.0156891
0.0161006
0.0164729
0.0167852
0.017129
0.0175412
0.0179915
0.0184653
0.0189621
0.0194492
0.019915
0.0203807
0.0208272
0.0212393
0.0216393
0.0220406
0.0224632
0.0229426
0.0234561
0.0239579
0.024459
0.0250033
0.0255634
0.0260911
0.0266164
0.0271988
0.027778
0.0283092
0.028855
0.029429
0.0300072
0.0306025
0.0312391
0.0319055
0.0326003
0.0332905
0.0339723
0.0346121
0.0352606
0.035968
0.0367169
0.0374512
0.0382065
0.0389823
0.0397498
0.0405229
0.041318
0.04215
0.0429882
0.0438555
0.0447267
0.0456267
0.0465348
0.0474779
0.0484326
0.0494097
0.0504192
0.0514469
0.052494
0.053541
0.0545948
0.0556891
0.0567871
0.0579348
0.0590553
0.0602064
0.0613494
0.0624934
0.0636131
0.0646636
0.0655958
0.0663589
0.0205535
0.0181741
0.0131066
0.00866245
0.00670353
0.00689802
0.00790207
0.00875622
0.00924734
0.00959775
0.0100212
0.0104529
0.0107345
0.0109362
0.0112032
0.0115313
0.0118561
0.0121344
0.0123912
0.0127322
0.0131577
0.013523
0.0137597
0.0139704
0.0142912
0.0147075
0.0150741
0.0153613
0.0156959
0.0161061
0.0164774
0.0167897
0.0171331
0.0175443
0.017994
0.018467
0.018963
0.0194496
0.0199157
0.0203819
0.0208285
0.0212404
0.0216405
0.0220421
0.0224645
0.0229434
0.0234565
0.0239586
0.0244599
0.0250039
0.0255638
0.0260917
0.0266173
0.0271996
0.0277786
0.0283099
0.0288558
0.0294296
0.0300076
0.0306029
0.0312395
0.0319059
0.0326007
0.033291
0.0339729
0.0346126
0.0352609
0.0359684
0.0367174
0.0374516
0.0382069
0.0389827
0.0397501
0.0405232
0.0413182
0.0421503
0.0429884
0.0438557
0.0447269
0.0456269
0.046535
0.0474781
0.0484327
0.0494098
0.0504193
0.0514471
0.0524942
0.0535412
0.0545949
0.0556893
0.0567873
0.0579349
0.0590555
0.0602065
0.0613496
0.0624936
0.0636135
0.0646644
0.0655971
0.0663591
0.0199763
0.0179045
0.0132475
0.00901232
0.00700619
0.00704
0.0079503
0.00879186
0.00929522
0.00964732
0.0100579
0.010474
0.0107496
0.0109536
0.0112224
0.0115471
0.0118677
0.0121464
0.0124064
0.0127463
0.0131653
0.0135262
0.0137656
0.013981
0.0143017
0.0147141
0.0150792
0.0153681
0.0157033
0.0161118
0.0164822
0.0167949
0.017138
0.0175483
0.0179971
0.0184693
0.0189641
0.0194499
0.019916
0.0203827
0.0208296
0.0212415
0.0216419
0.022044
0.0224665
0.0229446
0.0234571
0.0239594
0.024461
0.0250046
0.0255641
0.0260923
0.0266182
0.0272004
0.0277793
0.0283108
0.0288567
0.0294304
0.0300083
0.0306035
0.03124
0.0319062
0.032601
0.0332915
0.0339735
0.0346132
0.0352614
0.0359688
0.0367178
0.0374521
0.0382074
0.0389832
0.0397505
0.0405237
0.0413186
0.0421506
0.0429887
0.043856
0.0447271
0.0456271
0.0465352
0.0474783
0.0484329
0.04941
0.0504195
0.0514472
0.0524944
0.0535413
0.0545951
0.0556894
0.0567874
0.0579351
0.0590556
0.0602067
0.0613499
0.0624939
0.063614
0.0646655
0.0655987
0.0663595
0.0194261
0.0176242
0.0133661
0.00935088
0.00731787
0.00719647
0.00800285
0.00882602
0.00934321
0.00969944
0.0100971
0.0104967
0.0107654
0.0109719
0.0112425
0.0115637
0.0118797
0.0121588
0.0124223
0.0127612
0.0131736
0.0135298
0.0137717
0.013992
0.0143127
0.014721
0.0150845
0.0153754
0.0157111
0.0161178
0.0164872
0.0168005
0.0171436
0.0175529
0.0180008
0.018472
0.0189654
0.0194502
0.0199162
0.0203831
0.0208302
0.0212424
0.0216434
0.0220463
0.0224689
0.0229462
0.023458
0.0239605
0.0244623
0.0250053
0.0255643
0.0260928
0.0266191
0.027201
0.0277798
0.0283117
0.0288578
0.0294313
0.0300091
0.0306043
0.0312406
0.0319065
0.0326012
0.033292
0.0339741
0.0346138
0.0352619
0.0359694
0.0367184
0.0374526
0.0382079
0.0389837
0.0397511
0.0405242
0.0413191
0.0421511
0.0429892
0.0438564
0.0447275
0.0456274
0.0465354
0.0474785
0.0484331
0.0494101
0.0504197
0.0514474
0.0524946
0.0535415
0.0545952
0.0556896
0.0567876
0.0579353
0.0590559
0.0602069
0.0613503
0.0624943
0.0636145
0.064667
0.0656008
0.06636
0.0189029
0.0173372
0.0134632
0.00967528
0.00763486
0.00736703
0.00806042
0.00885825
0.00939036
0.00975367
0.0101391
0.0105212
0.0107823
0.0109911
0.0112636
0.011581
0.0118921
0.0121715
0.0124386
0.0127768
0.0131825
0.0135337
0.013778
0.0140033
0.0143241
0.0147283
0.0150902
0.0153829
0.0157192
0.016124
0.0164923
0.0168061
0.0171494
0.0175579
0.0180049
0.0184751
0.0189671
0.0194506
0.0199162
0.0203831
0.0208304
0.021243
0.0216449
0.0220489
0.0224718
0.0229483
0.0234592
0.0239618
0.0244639
0.0250062
0.0255645
0.0260933
0.0266199
0.0272015
0.0277802
0.0283125
0.0288589
0.0294323
0.0300102
0.0306056
0.0312416
0.0319069
0.0326012
0.0332922
0.0339746
0.0346143
0.0352626
0.03597
0.036719
0.0374532
0.0382085
0.0389842
0.0397516
0.0405248
0.0413197
0.0421516
0.0429897
0.0438569
0.0447279
0.0456278
0.0465358
0.0474788
0.0484334
0.0494103
0.0504199
0.0514476
0.0524948
0.0535417
0.0545954
0.0556898
0.0567878
0.0579355
0.0590561
0.0602071
0.0613507
0.0624947
0.0636152
0.0646688