/*--------------------------------*- C++ -*----------------------------------*\
| =========                 |                                                 |
| \\      /  F ield         | OpenFOAM: The Open Source CFD Toolbox           |
|  \\    /   O peration     | Version:  3.0.1                                 |
|   \\  /    A nd           | Web:      www.OpenFOAM.org                      |
|    \\/     M anipulation  |                                                 |
\*---------------------------------------------------------------------------*/
FoamFile
{
    version     2.0;
    format      ascii;
    class       surfaceScalarField;
    location    "4.6";
    object      phi;
}
// * * * * * * * * * * * * * * * * * * * * * * * * * * * * * * * * * * * * * //

dimensions      [0 3 -1 0 0 0 0];

internalField   nonuniform List<scalar> 
19000
(
1.15414e-06
5.32605e-08
1.11899e-06
2.63094e-07
1.22193e-06
-2.04476e-06
1.31241e-06
-4.21584e-07
1.19933e-06
7.58471e-07
1.10899e-06
1.16013e-06
1.14095e-06
-7.48219e-07
1.15194e-06
-8.59543e-07
1.21619e-06
-1.4612e-06
1.20245e-06
-6.59394e-07
1.19186e-06
-3.05592e-07
1.21952e-06
1.54567e-07
1.21666e-06
-2.46307e-08
1.21777e-06
2.44324e-07
1.20387e-06
7.22493e-08
1.19605e-06
1.65916e-07
1.18278e-06
2.55665e-08
1.17078e-06
4.69481e-08
1.16676e-06
3.08585e-08
6.23279e-08
1.13735e-06
1.20699e-06
7.05333e-08
1.17496e-06
2.95127e-07
1.28279e-06
-2.1526e-06
1.37893e-06
-5.17719e-07
1.25512e-06
8.82282e-07
1.19925e-06
1.216e-06
1.22178e-06
-7.70755e-07
1.22435e-06
-8.62116e-07
1.2907e-06
-1.52754e-06
1.27368e-06
-6.42374e-07
1.25798e-06
-2.89892e-07
1.29026e-06
1.22294e-07
1.28217e-06
-1.65416e-08
1.2938e-06
2.32693e-07
1.26859e-06
9.74527e-08
1.27501e-06
1.59496e-07
1.24363e-06
5.69475e-08
1.25018e-06
4.03974e-08
1.21802e-06
6.30253e-08
5.44853e-08
1.22586e-06
1.26091e-06
9.2406e-08
1.23314e-06
3.22895e-07
1.33889e-06
-2.25835e-06
1.44801e-06
-6.26843e-07
1.32698e-06
1.00332e-06
1.29787e-06
1.24511e-06
1.30524e-06
-7.78128e-07
1.29832e-06
-8.552e-07
1.35608e-06
-1.5853e-06
1.35241e-06
-6.38706e-07
1.32688e-06
-2.64364e-07
1.36658e-06
8.25995e-08
1.35329e-06
-3.25856e-09
1.37201e-06
2.1398e-07
1.34272e-06
1.26738e-07
1.34958e-06
1.52637e-07
1.31978e-06
8.67453e-08
1.31633e-06
4.38556e-08
1.29448e-06
8.48693e-08
6.79804e-08
1.28099e-06
1.31718e-06
1.19326e-07
1.29464e-06
3.45439e-07
1.38761e-06
-2.35132e-06
1.5122e-06
-7.51432e-07
1.41357e-06
1.10194e-06
1.4041e-06
1.25458e-06
1.39076e-06
-7.64782e-07
1.37229e-06
-8.36735e-07
1.41026e-06
-1.62327e-06
1.42317e-06
-6.51615e-07
1.39588e-06
-2.37074e-07
1.43486e-06
4.36177e-08
1.42756e-06
4.04371e-09
1.44387e-06
1.97671e-07
1.42327e-06
1.47339e-07
1.42209e-06
1.53819e-07
1.40086e-06
1.07975e-07
1.388e-06
5.67154e-08
1.37057e-06
1.02298e-07
8.69989e-08
1.35155e-06
1.37755e-06
1.5013e-07
1.3587e-06
3.64285e-07
1.42816e-06
-2.42077e-06
1.56499e-06
-8.88263e-07
1.51103e-06
1.1559e-06
1.51371e-06
1.2519e-06
1.47781e-06
-7.28883e-07
1.44401e-06
-8.02937e-07
1.45553e-06
-1.63478e-06
1.47988e-06
-6.75973e-07
1.46306e-06
-2.20253e-07
1.49655e-06
1.01313e-08
1.50134e-06
-7.46844e-10
1.51512e-06
1.83888e-07
1.50448e-06
1.57981e-07
1.49901e-06
1.59284e-07
1.48176e-06
1.25229e-07
1.46585e-06
7.26233e-08
1.44764e-06
1.20511e-07
1.07478e-07
1.42716e-06
1.44451e-06
1.81296e-07
1.42529e-06
3.83502e-07
1.46396e-06
-2.45944e-06
1.60634e-06
-1.03064e-06
1.6127e-06
1.14955e-06
1.62312e-06
1.24148e-06
1.56728e-06
-6.73049e-07
1.51581e-06
-7.51463e-07
1.50007e-06
-1.61904e-06
1.52819e-06
-7.04099e-07
1.52821e-06
-2.20272e-07
1.55827e-06
-1.99268e-08
1.5733e-06
-1.57733e-08
1.58845e-06
1.68735e-07
1.58462e-06
1.61816e-07
1.57877e-06
1.65132e-07
1.56268e-06
1.41319e-07
1.54555e-06
8.9748e-08
1.52679e-06
1.39278e-07
1.29398e-07
1.50487e-06
1.52006e-06
2.07448e-07
1.4962e-06
4.07365e-07
1.5027e-06
-2.46594e-06
1.64292e-06
-1.17086e-06
1.71116e-06
1.08131e-06
1.72846e-06
1.22418e-06
1.65816e-06
-6.02754e-07
1.59072e-06
-6.8402e-07
1.55115e-06
-1.57947e-06
1.57712e-06
-7.30073e-07
1.59247e-06
-2.3562e-07
1.6237e-06
-5.1155e-08
1.64497e-06
-3.70439e-08
1.66337e-06
1.50335e-07
1.66396e-06
1.61221e-07
1.65905e-06
1.70041e-07
1.6435e-06
1.56878e-07
1.62527e-06
1.07973e-07
1.60655e-06
1.57994e-07
1.52212e-07
1.58374e-06
1.60414e-06
2.23436e-07
1.57437e-06
4.37131e-07
1.55278e-06
-2.44434e-06
1.68356e-06
-1.30164e-06
1.80099e-06
9.63873e-07
1.82566e-06
1.19951e-06
1.7473e-06
-5.2439e-07
1.66962e-06
-6.06349e-07
1.61162e-06
-1.52146e-06
1.63224e-06
-7.50701e-07
1.65759e-06
-2.60967e-07
1.69265e-06
-8.62148e-08
1.71768e-06
-6.20732e-08
1.73901e-06
1.29006e-07
1.74253e-06
1.57699e-07
1.73859e-06
1.73987e-07
1.72356e-06
1.71901e-07
1.70433e-06
1.27201e-07
1.68591e-06
1.76418e-07
1.75144e-07
1.66298e-06
1.69424e-06
2.26768e-07
1.66172e-06
4.6965e-07
1.61873e-06
-2.40135e-06
1.7339e-06
-1.41681e-06
1.88034e-06
8.17436e-07
1.91183e-06
1.16802e-06
1.83141e-06
-4.4397e-07
1.75147e-06
-5.26406e-07
1.6812e-06
-1.45119e-06
1.69519e-06
-7.64691e-07
1.72481e-06
-2.90586e-07
1.76307e-06
-1.24477e-07
1.79054e-06
-8.95369e-08
1.81404e-06
1.05503e-07
1.81962e-06
1.52118e-07
1.8164e-06
1.77212e-07
1.80216e-06
1.86136e-07
1.78235e-06
1.47014e-07
1.76447e-06
1.94291e-07
1.97403e-07
1.74222e-06
1.78684e-06
2.18647e-07
1.75754e-06
4.98955e-07
1.69978e-06
-2.3436e-06
1.79454e-06
-1.51156e-06
1.9499e-06
6.62076e-07
1.98615e-06
1.13177e-06
1.90894e-06
-3.66759e-07
1.83479e-06
-4.52263e-07
1.75873e-06
-1.37513e-06
1.76582e-06
-7.71775e-07
1.79462e-06
-3.19392e-07
1.83306e-06
-1.62912e-07
1.86149e-06
-1.17972e-07
1.88661e-06
8.03837e-08
1.89415e-06
1.44585e-07
1.89176e-06
1.79599e-07
1.87886e-06
1.99033e-07
1.85926e-06
1.66619e-07
1.84237e-06
2.11179e-07
2.18183e-07
1.82159e-06
1.87945e-06
2.02947e-07
1.85888e-06
5.19524e-07
1.79211e-06
-2.27683e-06
1.86307e-06
-1.58252e-06
2.01134e-06
5.13798e-07
2.05002e-06
1.09309e-06
1.98067e-06
-2.97402e-07
1.91879e-06
-3.90387e-07
1.84305e-06
-1.29938e-06
1.84373e-06
-7.72461e-07
1.86761e-06
-3.43271e-07
1.9024e-06
-1.97705e-07
1.92971e-06
-1.45282e-07
1.95572e-06
5.43731e-08
1.96557e-06
1.34734e-07
1.96468e-06
1.80489e-07
1.95401e-06
2.09702e-07
1.93574e-06
1.84893e-07
1.92042e-06
2.26497e-07
2.36768e-07
1.90184e-06
1.97165e-06
1.84133e-07
1.96243e-06
5.28751e-07
1.89167e-06
-2.20608e-06
1.93732e-06
-1.62817e-06
2.06754e-06
3.8358e-07
2.10739e-06
1.05324e-06
2.04968e-06
-2.39699e-07
2.00374e-06
-3.44439e-07
1.93309e-06
-1.22874e-06
1.92865e-06
-7.68014e-07
1.94504e-06
-3.59659e-07
1.97313e-06
-2.25795e-07
1.99697e-06
-1.6913e-07
2.02258e-06
2.87697e-08
2.03492e-06
1.22394e-07
2.03636e-06
1.7905e-07
2.02892e-06
2.17144e-07
2.01323e-06
2.00575e-07
2.00011e-06
2.39623e-07
2.52627e-07
1.98425e-06
2.06475e-06
1.65574e-07
2.06625e-06
5.27253e-07
1.99562e-06
-2.13545e-06
2.01713e-06
-1.64967e-06
2.12361e-06
2.77093e-07
2.16444e-06
1.01241e-06
2.12046e-06
-1.95718e-07
2.09083e-06
-3.14809e-07
2.02795e-06
-1.16586e-06
2.02019e-06
-7.60261e-07
2.02857e-06
-3.68038e-07
2.04864e-06
-2.45861e-07
2.06724e-06
-1.87728e-07
2.09063e-06
5.37199e-09
2.10489e-06
1.08136e-07
2.10908e-06
1.74864e-07
2.10551e-06
2.20709e-07
2.09348e-06
2.12611e-07
2.08306e-06
2.50034e-07
2.6545e-07
2.07024e-06
2.16057e-06
1.49004e-07
2.17033e-06
5.17495e-07
2.10245e-06
-2.06757e-06
2.10377e-06
-1.65099e-06
2.18609e-06
1.94776e-07
2.22799e-06
9.70509e-07
2.19734e-06
-1.65067e-07
2.18168e-06
-2.99153e-07
2.12693e-06
-1.11111e-06
2.11779e-06
-7.51112e-07
2.11952e-06
-3.69771e-07
2.13208e-06
-2.58423e-07
2.14478e-06
-2.0043e-07
2.16422e-06
-1.40613e-08
2.17906e-06
9.32937e-08
2.18564e-06
1.68281e-07
2.18584e-06
2.20514e-07
2.17792e-06
2.2053e-07
2.1705e-06
2.57454e-07
2.75145e-07
2.1608e-06
2.26063e-06
1.34862e-07
2.27595e-06
5.02179e-07
2.21179e-06
-2.00341e-06
2.19846e-06
-1.63767e-06
2.26012e-06
1.3312e-07
2.30292e-06
9.27714e-07
2.28311e-06
-1.45258e-07
2.27771e-06
-2.93755e-07
2.22983e-06
-1.06323e-06
2.22071e-06
-7.41997e-07
2.2182e-06
-3.67254e-07
2.22494e-06
-2.65167e-07
2.2323e-06
-2.07792e-07
2.24671e-06
-2.84633e-08
2.26052e-06
7.94794e-08
2.2685e-06
1.60304e-07
2.27154e-06
2.17475e-07
2.26747e-06
2.24597e-07
2.26297e-06
2.61949e-07
2.81823e-07
2.2563e-06
2.3658e-06
1.22933e-07
2.38464e-06
4.83345e-07
2.32398e-06
-1.94275e-06
2.3014e-06
-1.61508e-06
2.34755e-06
8.6966e-08
2.39081e-06
8.84458e-07
2.37855e-06
-1.33004e-07
2.37977e-06
-2.94978e-07
2.33685e-06
-1.02031e-06
2.32842e-06
-7.33559e-07
2.32404e-06
-3.6288e-07
2.3269e-06
-2.68028e-07
2.33023e-06
-2.11115e-07
2.33955e-06
-3.77846e-08
2.35106e-06
6.79703e-08
2.35922e-06
1.52145e-07
2.36374e-06
2.12955e-07
2.36268e-06
2.25658e-07
2.36073e-06
2.6389e-07
2.85781e-07
2.35678e-06
2.47651e-06
1.12814e-07
2.49762e-06
4.62245e-07
2.43969e-06
-1.88483e-06
2.41187e-06
-1.58727e-06
2.44728e-06
5.15611e-08
2.49061e-06
8.41127e-07
2.4831e-06
-1.25493e-07
2.48822e-06
-3.001e-07
2.44853e-06
-9.80621e-07
2.4407e-06
-7.2573e-07
2.43617e-06
-3.5835e-07
2.43669e-06
-2.68547e-07
2.43741e-06
-2.11839e-07
2.44246e-06
-4.28255e-08
2.45108e-06
5.93434e-08
2.45848e-06
1.44742e-07
2.4632e-06
2.08243e-07
2.46405e-06
2.24804e-07
2.46416e-06
2.6378e-07
2.87462e-07
2.46248e-06
2.59298e-06
1.04124e-07
2.61565e-06
4.39577e-07
2.5596e-06
-1.82878e-06
2.52903e-06
-1.55669e-06
2.55714e-06
2.34441e-08
2.60037e-06
7.97899e-07
2.59579e-06
-1.20916e-07
2.60311e-06
-3.07413e-07
2.56547e-06
-9.42982e-07
2.55778e-06
-7.1804e-07
2.55395e-06
-3.54518e-07
2.55307e-06
-2.67665e-07
2.55234e-06
-2.11109e-07
2.55429e-06
-4.4779e-08
2.56014e-06
5.34968e-08
2.56637e-06
1.38508e-07
2.57045e-06
2.04168e-07
2.57222e-06
2.23024e-07
2.57394e-06
2.62066e-07
2.87351e-07
2.57405e-06
2.71541e-06
9.65442e-08
2.73924e-06
4.15745e-07
2.68428e-06
-1.77382e-06
2.65229e-06
-1.5247e-06
2.67539e-06
3.38109e-10
2.71853e-06
7.54766e-07
2.71594e-06
-1.18326e-07
2.72443e-06
-3.15905e-07
2.68819e-06
-9.0674e-07
2.68009e-06
-7.0994e-07
2.67716e-06
-3.51587e-07
2.67532e-06
-2.65833e-07
2.67385e-06
-2.09638e-07
2.67389e-06
-4.48133e-08
2.67745e-06
4.99289e-08
2.68261e-06
1.33355e-07
2.68579e-06
2.00985e-07
2.68782e-06
2.20998e-07
2.69083e-06
2.59048e-07
2.85857e-07
2.69233e-06
2.84401e-06
8.9804e-08
2.86876e-06
3.90998e-07
2.81422e-06
-1.71928e-06
2.78148e-06
-1.49196e-06
2.80111e-06
-1.9292e-08
2.84426e-06
7.11613e-07
2.84321e-06
-1.17281e-07
2.85223e-06
-3.24924e-07
2.81707e-06
-8.71579e-07
2.80812e-06
-7.00985e-07
2.80594e-06
-3.49405e-07
2.80332e-06
-2.63219e-07
2.80145e-06
-2.07767e-07
2.80049e-06
-4.38515e-08
2.80238e-06
4.80342e-08
2.80681e-06
1.28925e-07
2.80931e-06
1.98487e-07
2.81124e-06
2.19067e-07
2.81539e-06
2.54902e-07
2.83214e-07
2.81803e-06
2.97902e-06
8.36783e-08
3.00453e-06
3.6549e-07
2.94988e-06
-1.66463e-06
2.9167e-06
-1.45878e-06
2.93398e-06
-3.65745e-08
2.97729e-06
6.68305e-07
2.97757e-06
-1.17564e-07
2.98662e-06
-3.33974e-07
2.9524e-06
-8.37356e-07
2.94232e-06
-6.9091e-07
2.94062e-06
-3.47706e-07
2.93731e-06
-2.59906e-07
2.93514e-06
-2.05602e-07
2.93383e-06
-4.25411e-08
2.93459e-06
4.72829e-08
2.93868e-06
1.24836e-07
2.94093e-06
1.9623e-07
2.94268e-06
2.17322e-07
2.9478e-06
2.49778e-07
2.79475e-07
2.95154e-06
3.12069e-06
7.79953e-08
3.14687e-06
3.39311e-07
3.09174e-06
-1.6095e-06
3.05822e-06
-1.42526e-06
3.07402e-06
-5.23703e-08
3.11757e-06
6.24757e-07
3.11905e-06
-1.1905e-07
3.12774e-06
-3.42658e-07
3.09438e-06
-8.04004e-07
3.08309e-06
-6.79619e-07
3.08163e-06
-3.46245e-07
3.0777e-06
-2.55973e-07
3.07524e-06
-2.03144e-07
3.07401e-06
-4.13153e-08
3.07403e-06
4.72704e-08
3.07804e-06
1.20818e-07
3.08053e-06
1.9374e-07
3.08213e-06
2.15725e-07
3.08802e-06
2.43889e-07
2.74567e-07
3.09293e-06
3.26926e-06
7.26471e-08
3.29606e-06
3.12513e-07
3.24028e-06
-1.55372e-06
3.20642e-06
-1.3914e-06
3.22136e-06
-6.73085e-08
3.26515e-06
5.8097e-07
3.26774e-06
-1.21647e-07
3.27576e-06
-3.50677e-07
3.24325e-06
-7.71494e-07
3.23077e-06
-6.67142e-07
3.22938e-06
-3.44853e-07
3.22494e-06
-2.51527e-07
3.22215e-06
-2.00353e-07
3.22129e-06
-4.04601e-08
3.22085e-06
4.77069e-08
3.22493e-06
1.16744e-07
3.22801e-06
1.9066e-07
3.22958e-06
2.14148e-07
3.2359e-06
2.37577e-07
2.68388e-07
3.24208e-06
3.42499e-06
6.75878e-08
3.45236e-06
2.85143e-07
3.39594e-06
-1.49731e-06
3.36169e-06
-1.35715e-06
3.37619e-06
-8.18058e-08
3.42011e-06
5.37048e-07
3.42375e-06
-1.25283e-07
3.43092e-06
-3.57844e-07
3.39924e-06
-7.39819e-07
3.3857e-06
-6.53596e-07
3.38428e-06
-3.43439e-07
3.37944e-06
-2.46684e-07
3.37627e-06
-1.97183e-07
3.37594e-06
-4.01281e-08
3.37528e-06
4.83653e-08
3.3794e-06
1.12621e-07
3.38328e-06
1.8678e-07
3.38501e-06
2.12418e-07
3.39134e-06
2.31249e-07
2.6093e-07
3.3988e-06
3.58818e-06
6.28176e-08
3.61606e-06
2.57265e-07
3.55917e-06
-1.44041e-06
3.52444e-06
-1.32243e-06
3.53874e-06
-9.61086e-08
3.58263e-06
4.93157e-07
3.58724e-06
-1.29894e-07
3.59348e-06
-3.64083e-07
3.56265e-06
-7.08986e-07
3.54818e-06
-6.39125e-07
3.5467e-06
-3.41963e-07
3.54158e-06
-2.41558e-07
3.53799e-06
-1.93592e-07
3.53822e-06
-4.03593e-08
3.53751e-06
4.90675e-08
3.54159e-06
1.08543e-07
3.54634e-06
1.82035e-07
3.54843e-06
2.10329e-07
3.55442e-06
2.25259e-07
2.52375e-07
3.56297e-06
3.75916e-06
5.83589e-08
3.78745e-06
2.28979e-07
3.73034e-06
-1.3833e-06
3.69504e-06
-1.28713e-06
3.70928e-06
-1.10351e-07
3.75296e-06
4.49484e-07
3.75848e-06
-1.35416e-07
3.76379e-06
-3.69391e-07
3.73381e-06
-6.79014e-07
3.71854e-06
-6.23855e-07
3.717e-06
-3.40422e-07
3.71169e-06
-2.36244e-07
3.70764e-06
-1.89547e-07
3.70839e-06
-4.11006e-08
3.70779e-06
4.96667e-08
3.71169e-06
1.04644e-07
3.71724e-06
1.76479e-07
3.71988e-06
2.07694e-07
3.72535e-06
2.19784e-07
2.43112e-07
3.73461e-06
3.93831e-06
5.4237e-08
3.96686e-06
2.00425e-07
3.90984e-06
-1.32628e-06
3.87388e-06
-1.25116e-06
3.88813e-06
-1.24604e-07
3.93142e-06
4.06193e-07
3.93777e-06
-1.41767e-07
3.9422e-06
-3.73821e-07
3.91312e-06
-6.49933e-07
3.89714e-06
-6.07874e-07
3.89554e-06
-3.38825e-07
3.8901e-06
-2.30803e-07
3.88559e-06
-1.85041e-07
3.88672e-06
-4.22317e-08
3.88636e-06
5.00329e-08
3.88997e-06
1.01032e-07
3.89616e-06
1.70284e-07
3.89951e-06
2.04352e-07
3.90449e-06
2.14804e-07
2.33638e-07
3.91396e-06
4.12602e-06
5.04671e-08
4.15467e-06
1.71778e-07
4.09806e-06
-1.26967e-06
4.06134e-06
-1.21444e-06
4.07564e-06
-1.38899e-07
4.11842e-06
3.6341e-07
4.12549e-06
-1.48838e-07
4.12912e-06
-3.77445e-07
4.10097e-06
-6.21783e-07
4.08433e-06
-5.91241e-07
4.08268e-06
-3.37167e-07
4.07716e-06
-2.25287e-07
4.07219e-06
-1.80068e-07
4.07356e-06
-4.36081e-08
4.07354e-06
5.00567e-08
4.07679e-06
9.77815e-08
4.08339e-06
1.63681e-07
4.08753e-06
2.00218e-07
4.09223e-06
2.10098e-07
2.24436e-07
4.10144e-06
4.32272e-06
4.70493e-08
4.35126e-06
1.43239e-07
4.29538e-06
-1.21379e-06
4.25786e-06
-1.17693e-06
4.27219e-06
-1.53235e-07
4.31439e-06
3.21216e-07
4.32204e-06
-1.5649e-07
4.32494e-06
-3.80346e-07
4.29778e-06
-5.94627e-07
4.28054e-06
-5.74e-07
4.2788e-06
-3.35425e-07
4.27325e-06
-2.19732e-07
4.26781e-06
-1.74632e-07
4.2693e-06
-4.50993e-08
4.26965e-06
4.97048e-08
4.27251e-06
9.49282e-08
4.27933e-06
1.56861e-07
4.28425e-06
1.95293e-07
4.28895e-06
2.054e-07
2.15757e-07
4.29763e-06
4.52885e-06
4.39702e-08
4.55706e-06
1.1503e-07
4.5022e-06
-1.15892e-06
4.46387e-06
-1.1386e-06
4.47821e-06
-1.67567e-07
4.51977e-06
2.79653e-07
4.52784e-06
-1.64565e-07
4.53008e-06
-3.82585e-07
4.504e-06
-5.68547e-07
4.48621e-06
-5.56204e-07
4.48431e-06
-3.33529e-07
4.47878e-06
-2.14205e-07
4.47287e-06
-1.68715e-07
4.47438e-06
-4.66164e-08
4.47508e-06
4.90086e-08
4.47753e-06
9.24816e-08
4.48442e-06
1.49964e-07
4.49012e-06
1.89602e-07
4.49499e-06
2.00529e-07
2.07636e-07
4.50311e-06
4.74488e-06
4.12072e-08
4.77254e-06
8.73721e-08
4.71895e-06
-1.10534e-06
4.67987e-06
-1.09952e-06
4.6941e-06
-1.81796e-07
4.73502e-06
2.38733e-07
4.74338e-06
-1.72923e-07
4.74497e-06
-3.84176e-07
4.72007e-06
-5.43643e-07
4.70179e-06
-5.37924e-07
4.69965e-06
-3.31395e-07
4.69423e-06
-2.08778e-07
4.68782e-06
-1.62312e-07
4.68928e-06
-4.80718e-08
4.69032e-06
4.79704e-08
4.69236e-06
9.04342e-08
4.69919e-06
1.43143e-07
4.70559e-06
1.83194e-07
4.71078e-06
1.95344e-07
2.00029e-07
4.71839e-06
4.97127e-06
3.87338e-08
4.99817e-06
6.04761e-08
4.94605e-06
-1.05322e-06
4.90635e-06
-1.05983e-06
4.92034e-06
-1.9578e-07
4.96061e-06
1.9846e-07
4.96914e-06
-1.81451e-07
4.97006e-06
-3.851e-07
4.94642e-06
-5.19993e-07
4.92776e-06
-5.19265e-07
4.92529e-06
-3.28933e-07
4.92005e-06
-2.03535e-07
4.91316e-06
-1.55423e-07
4.91446e-06
-4.93684e-08
4.91592e-06
4.65069e-08
4.91758e-06
8.8773e-08
4.92415e-06
1.36572e-07
4.93124e-06
1.76109e-07
4.93678e-06
1.89798e-07
1.92871e-07
4.94394e-06
5.20852e-06
3.65283e-08
5.23448e-06
3.45227e-08
5.18395e-06
-1.00269e-06
5.14384e-06
-1.01972e-06
5.15743e-06
-2.09374e-07
5.19701e-06
1.58883e-07
5.20566e-06
-1.90101e-07
5.20586e-06
-3.85307e-07
5.18352e-06
-4.97646e-07
5.1646e-06
-5.00348e-07
5.16174e-06
-3.26078e-07
5.15675e-06
-1.98544e-07
5.1494e-06
-1.48072e-07
5.15046e-06
-5.04263e-08
5.15239e-06
4.4574e-08
5.1538e-06
8.73697e-08
5.1599e-06
1.30466e-07
5.16754e-06
1.68469e-07
5.17359e-06
1.83755e-07
1.86189e-07
5.18027e-06
5.45714e-06
3.45723e-08
5.48201e-06
9.6538e-09
5.4331e-06
-9.53778e-07
5.39287e-06
-9.79484e-07
5.40591e-06
-2.22418e-07
5.44471e-06
1.20087e-07
5.45349e-06
-1.98882e-07
5.45292e-06
-3.84738e-07
5.43185e-06
-4.76576e-07
5.41281e-06
-4.8131e-07
5.40954e-06
-3.2281e-07
5.40484e-06
-1.93839e-07
5.39713e-06
-1.40364e-07
5.39783e-06
-5.11314e-08
5.40031e-06
4.20989e-08
5.4016e-06
8.60805e-08
5.40707e-06
1.24997e-07
5.41503e-06
1.6051e-07
5.42168e-06
1.77103e-07
1.79871e-07
5.428e-06
5.71768e-06
3.28525e-08
5.74137e-06
-1.40412e-08
5.69401e-06
-9.06415e-07
5.654e-06
-9.39474e-07
5.66634e-06
-2.34756e-07
5.70422e-06
8.22048e-08
5.71321e-06
-2.0787e-07
5.71182e-06
-3.83344e-07
5.69194e-06
-4.567e-07
5.6729e-06
-4.62274e-07
5.66923e-06
-3.19132e-07
5.66485e-06
-1.89462e-07
5.65688e-06
-1.324e-07
5.65714e-06
-5.13848e-08
5.66019e-06
3.90498e-08
5.66157e-06
8.46997e-08
5.66632e-06
1.20242e-07
5.67422e-06
1.52613e-07
5.68157e-06
1.69752e-07
1.73656e-07
5.68779e-06
5.99069e-06
3.13579e-08
6.01317e-06
-3.65261e-08
5.96719e-06
-8.60428e-07
5.92781e-06
-9.00099e-07
5.93933e-06
-2.46274e-07
5.97611e-06
4.54247e-08
5.9854e-06
-2.1716e-07
5.98317e-06
-3.8112e-07
5.96435e-06
-4.3788e-07
5.94542e-06
-4.43338e-07
5.94134e-06
-3.15055e-07
5.93736e-06
-1.85485e-07
5.92925e-06
-1.24285e-07
5.92895e-06
-5.10819e-08
5.93256e-06
3.54328e-08
5.93429e-06
8.29726e-08
5.9383e-06
1.16232e-07
5.94581e-06
1.45106e-07
5.95374e-06
1.61818e-07
1.6718e-07
5.96022e-06
6.27677e-06
3.00795e-08
6.29806e-06
-5.78199e-08
6.25321e-06
-8.15576e-07
6.21489e-06
-8.61784e-07
6.22552e-06
-2.56898e-07
6.26089e-06
1.00482e-08
6.2706e-06
-2.26863e-07
6.26764e-06
-3.78165e-07
6.2497e-06
-4.19939e-07
6.23093e-06
-4.24562e-07
6.22645e-06
-3.10575e-07
6.22295e-06
-1.81992e-07
6.21481e-06
-1.16147e-07
6.21384e-06
-5.01032e-08
6.21802e-06
3.12506e-08
6.22028e-06
8.07092e-08
6.22365e-06
1.12861e-07
6.23052e-06
1.3824e-07
6.23869e-06
1.53644e-07
1.60085e-07
6.24579e-06
6.57654e-06
2.90043e-08
6.59669e-06
-7.7968e-08
6.55277e-06
-7.71657e-07
6.51587e-06
-8.24882e-07
6.52557e-06
-2.66599e-07
6.55915e-06
-2.35273e-08
6.56934e-06
-2.37057e-07
6.56585e-06
-3.74673e-07
6.54866e-06
-4.02748e-07
6.53002e-06
-4.05926e-07
6.52512e-06
-3.05672e-07
6.52222e-06
-1.79092e-07
6.51418e-06
-1.08105e-07
6.51246e-06
-4.83898e-08
6.51703e-06
2.66803e-08
6.52006e-06
7.76801e-08
6.52303e-06
1.0989e-07
6.52912e-06
1.32159e-07
6.53711e-06
1.45646e-07
1.52261e-07
6.54494e-06
6.89069e-06
2.8105e-08
6.90972e-06
-9.70024e-08
6.86682e-06
-7.28757e-07
6.83138e-06
-7.89434e-07
6.84024e-06
-2.75463e-07
6.87158e-06
-5.48703e-08
6.88215e-06
-2.4762e-07
6.87843e-06
-3.70961e-07
6.86192e-06
-3.86238e-07
6.84339e-06
-3.87389e-07
6.83794e-06
-3.00223e-07
6.83571e-06
-1.76867e-07
6.82801e-06
-1.00398e-07
6.82546e-06
-4.58431e-08
6.83014e-06
2.19969e-08
6.83417e-06
7.36499e-08
6.83706e-06
1.07007e-07
6.84232e-06
1.26896e-07
6.84984e-06
1.38123e-07
1.43908e-07
6.8582e-06
7.21991e-06
2.73299e-08
7.23779e-06
-1.1488e-07
7.19627e-06
-6.87235e-07
7.16175e-06
-7.54917e-07
7.17023e-06
-2.83939e-07
7.199e-06
-8.36397e-08
7.2096e-06
-2.5822e-07
7.20598e-06
-3.67349e-07
7.19021e-06
-3.70461e-07
7.17172e-06
-3.689e-07
7.16552e-06
-2.94024e-07
7.16399e-06
-1.75337e-07
7.1569e-06
-9.3305e-08
7.15356e-06
-4.25078e-08
7.158e-06
1.75537e-08
7.16313e-06
6.85196e-08
7.16628e-06
1.03862e-07
7.17085e-06
1.22322e-07
7.17765e-06
1.3133e-07
1.35387e-07
7.18617e-06
7.56496e-06
2.65984e-08
7.58155e-06
-1.31468e-07
7.54191e-06
-6.47603e-07
7.50744e-06
-7.20444e-07
7.51611e-06
-2.92605e-07
7.54229e-06
-1.09827e-07
7.55235e-06
-2.68272e-07
7.5491e-06
-3.641e-07
7.53417e-06
-3.55534e-07
7.51573e-06
-3.50459e-07
7.50858e-06
-2.86877e-07
7.50757e-06
-1.74324e-07
7.50142e-06
-8.71534e-08
7.49749e-06
-3.85771e-08
7.50139e-06
1.36506e-08
7.50749e-06
6.24165e-08
7.51125e-06
1.00104e-07
7.51533e-06
1.18242e-07
7.52134e-06
1.25319e-07
1.27166e-07
7.52956e-06
7.92661e-06
2.58002e-08
7.94167e-06
-1.4653e-07
7.90454e-06
-6.1047e-07
7.86928e-06
-6.85189e-07
7.87847e-06
-3.01795e-07
7.90246e-06
-1.33809e-07
7.91133e-06
-2.77142e-07
7.90845e-06
-3.61229e-07
7.89448e-06
-3.41559e-07
7.87611e-06
-3.32089e-07
7.86785e-06
-2.7862e-07
7.86707e-06
-1.73547e-07
7.86212e-06
-8.2201e-08
7.85794e-06
-3.43919e-08
7.86108e-06
1.05089e-08
7.86785e-06
5.56491e-08
7.87249e-06
9.54614e-08
7.87636e-06
1.14374e-07
7.88173e-06
1.19948e-07
1.19703e-07
7.88919e-06
8.30568e-06
2.48026e-08
8.31891e-06
-1.59764e-07
8.28488e-06
-5.76437e-07
8.24826e-06
-6.48569e-07
8.25815e-06
-3.11682e-07
8.28095e-06
-1.56615e-07
8.28761e-06
-2.83802e-07
8.28438e-06
-3.57998e-07
8.27159e-06
-3.28768e-07
8.25352e-06
-3.1402e-07
8.24405e-06
-2.69143e-07
8.24329e-06
-1.72787e-07
8.2396e-06
-7.85118e-08
8.23557e-06
-3.03657e-08
8.23785e-06
8.22681e-09
8.24485e-06
4.865e-08
8.25059e-06
8.97233e-08
8.25454e-06
1.10425e-07
8.25948e-06
1.15011e-07
1.13153e-07
8.26603e-06
8.703e-06
2.34596e-08
8.71406e-06
-1.7082e-07
8.68362e-06
-5.45994e-07
8.64556e-06
-6.10507e-07
8.65488e-06
-3.21008e-07
8.67551e-06
-1.77248e-07
8.68005e-06
-2.88342e-07
8.67712e-06
-3.55065e-07
8.666e-06
-3.1765e-07
8.6487e-06
-2.96719e-07
8.63806e-06
-2.58502e-07
8.63693e-06
-1.71659e-07
8.6346e-06
-7.61833e-08
8.63115e-06
-2.69063e-08
8.6326e-06
6.77601e-09
8.63933e-06
4.19189e-08
8.64624e-06
8.28136e-08
8.65058e-06
1.06085e-07
8.65524e-06
1.10346e-07
1.07348e-07
8.66105e-06
9.11946e-06
2.16174e-08
9.12797e-06
-1.79324e-07
9.10132e-06
-5.19352e-07
9.06217e-06
-5.71352e-07
9.06958e-06
-3.28417e-07
9.08983e-06
-1.97505e-07
9.09226e-06
-2.9077e-07
9.08853e-06
-3.51329e-07
9.07872e-06
-3.0784e-07
9.06251e-06
-2.80511e-07
9.0509e-06
-2.46899e-07
9.04899e-06
-1.69748e-07
9.04802e-06
-7.52101e-08
9.04539e-06
-2.42745e-08
9.0462e-06
5.96106e-09
9.05228e-06
3.58407e-08
9.06015e-06
7.49498e-08
9.06525e-06
1.00979e-07
9.06971e-06
1.05891e-07
1.01978e-07
9.07508e-06
9.55594e-06
1.91331e-08
9.56159e-06
-1.84966e-07
9.53869e-06
-4.96454e-07
9.49985e-06
-5.32517e-07
9.50438e-06
-3.32947e-07
9.52423e-06
-2.17352e-07
9.52479e-06
-2.91327e-07
9.51933e-06
-3.4587e-07
9.51055e-06
-2.99059e-07
9.49586e-06
-2.65824e-07
9.48369e-06
-2.34726e-07
9.48082e-06
-1.66875e-07
9.48087e-06
-7.52678e-08
9.47921e-06
-2.26092e-08
9.47963e-06
5.53367e-09
9.48489e-06
3.05829e-08
9.49323e-06
6.6613e-08
9.49942e-06
9.47917e-08
9.50375e-06
1.01559e-07
9.68538e-08
9.50887e-06
1.00134e-05
1.58846e-08
1.0016e-05
-1.87591e-07
9.99654e-06
-4.76981e-07
9.95953e-06
-4.95508e-07
9.96003e-06
-3.33447e-07
9.97923e-06
-2.36558e-07
9.97893e-06
-2.91023e-07
9.97091e-06
-3.37851e-07
9.96261e-06
-2.90758e-07
9.94974e-06
-2.52953e-07
9.93746e-06
-2.22449e-07
9.93374e-06
-1.63152e-07
9.93431e-06
-7.58362e-08
9.9336e-06
-2.19056e-08
9.93394e-06
5.19906e-09
9.93833e-06
2.61912e-08
9.94659e-06
5.8349e-08
9.95394e-06
8.74415e-08
9.95842e-06
9.7087e-08
9.19967e-08
9.96327e-06
1.04927e-05
1.17857e-08
1.04924e-05
-1.87247e-07
1.04758e-05
-4.60375e-07
1.0442e-05
-4.61696e-07
1.04379e-05
-3.29349e-07
1.04557e-05
-2.54359e-07
1.04558e-05
-2.91114e-07
1.04451e-05
-3.27177e-07
1.04362e-05
-2.81882e-07
1.04251e-05
-2.41817e-07
1.04134e-05
-2.10787e-07
1.04088e-05
-1.58551e-07
1.04096e-05
-7.66607e-08
1.04098e-05
-2.20282e-08
1.04101e-05
4.81724e-09
1.04138e-05
2.25874e-08
1.04215e-05
5.06252e-08
1.04297e-05
7.91835e-08
1.04347e-05
9.21129e-08
8.74243e-08
1.04393e-05
1.0995e-05
6.79977e-09
1.09919e-05
-1.84182e-07
1.09774e-05
-4.45884e-07
1.09479e-05
-4.32139e-07
1.09393e-05
-3.20722e-07
1.09545e-05
-2.6962e-07
1.09561e-05
-2.92659e-07
1.09436e-05
-3.14733e-07
1.0933e-05
-2.71298e-07
1.09231e-05
-2.31905e-07
1.09124e-05
-2.0009e-07
1.09073e-05
-1.53425e-07
1.09081e-05
-7.74297e-08
1.09089e-05
-2.28383e-08
1.09094e-05
4.34993e-09
1.09123e-05
1.96517e-08
1.09192e-05
4.37224e-08
1.09279e-05
7.04637e-08
1.09337e-05
8.6358e-08
8.30268e-08
1.09381e-05
1.15212e-05
9.49899e-10
1.15158e-05
-1.78774e-07
1.15027e-05
-4.32767e-07
1.14779e-05
-4.07396e-07
1.14656e-05
-3.0836e-07
1.14769e-05
-2.80891e-07
1.14801e-05
-2.95934e-07
1.14675e-05
-3.02105e-07
1.14548e-05
-2.58631e-07
1.14451e-05
-2.22189e-07
1.14354e-05
-1.90391e-07
1.14302e-05
-1.482e-07
1.14308e-05
-7.80115e-08
1.14321e-05
-2.41632e-08
1.14327e-05
3.73478e-09
1.14351e-05
1.72748e-08
1.1441e-05
3.78088e-08
1.14497e-05
6.17506e-08
1.14563e-05
7.97797e-08
7.85971e-08
1.14607e-05
1.20724e-05
-5.65539e-09
1.20652e-05
-1.71591e-07
1.20527e-05
-4.20252e-07
1.20329e-05
-3.87534e-07
1.2018e-05
-2.93537e-07
1.20239e-05
-2.86794e-07
1.20284e-05
-3.00395e-07
1.20174e-05
-2.91077e-07
1.2003e-05
-2.4426e-07
1.19925e-05
-2.11651e-07
1.19835e-05
-1.81411e-07
1.19784e-05
-1.43139e-07
1.19788e-05
-7.84126e-08
1.19806e-05
-2.59011e-08
1.19814e-05
2.9057e-09
1.19834e-05
1.53038e-08
1.19883e-05
3.29114e-08
1.19965e-05
5.34897e-08
1.20038e-05
7.25259e-08
7.39079e-08
1.20085e-05
1.26497e-05
-1.27984e-08
1.26414e-05
-1.63262e-07
1.26286e-05
-4.07455e-07
1.26134e-05
-3.72276e-07
1.25976e-05
-2.77822e-07
1.25974e-05
-2.8658e-07
1.26016e-05
-3.04548e-07
1.25937e-05
-2.83212e-07
1.25786e-05
-2.29186e-07
1.25668e-05
-1.99782e-07
1.2558e-05
-1.72609e-07
1.2553e-05
-1.3822e-07
1.25534e-05
-7.87707e-08
1.25555e-05
-2.79645e-08
1.25565e-05
1.85561e-09
1.25583e-05
1.3536e-08
1.25622e-05
2.89622e-08
1.25697e-05
4.6034e-08
1.25774e-05
6.48607e-08
6.88179e-08
1.25824e-05
1.32543e-05
-2.01546e-08
1.32451e-05
-1.54109e-07
1.32313e-05
-3.93622e-07
1.32202e-05
-3.61149e-07
1.32052e-05
-2.62818e-07
1.31989e-05
-2.80349e-07
1.32008e-05
-3.06381e-07
1.31967e-05
-2.79109e-07
1.31827e-05
-2.15239e-07
1.31696e-05
-1.86614e-07
1.31602e-05
-1.63274e-07
1.31553e-05
-1.33342e-07
1.31556e-05
-7.90234e-08
1.31581e-05
-3.04621e-08
1.31594e-05
5.68336e-10
1.3161e-05
1.18874e-08
1.31643e-05
2.57099e-08
1.31707e-05
3.96457e-08
1.31784e-05
5.71749e-08
6.32959e-08
1.31839e-05
1.38873e-05
-2.73342e-08
1.38786e-05
-1.45385e-07
1.38627e-05
-3.77669e-07
1.38546e-05
-3.53046e-07
1.38413e-05
-2.496e-07
1.38304e-05
-2.69392e-07
1.38277e-05
-3.03674e-07
1.38267e-05
-2.78152e-07
1.3816e-05
-2.04549e-07
1.38022e-05
-1.72736e-07
1.37919e-05
-1.53016e-07
1.37867e-05
-1.28154e-07
1.37867e-05
-7.90417e-08
1.37896e-05
-3.33443e-08
1.37913e-05
-1.07523e-09
1.37928e-05
1.03332e-08
1.37956e-05
2.28699e-08
1.38009e-05
3.43474e-08
1.38082e-05
4.99007e-08
5.74188e-08
1.38141e-05
1.45502e-05
-3.38892e-08
1.4542e-05
-1.3712e-07
1.45236e-05
-3.5935e-07
1.45178e-05
-3.47238e-07
1.45074e-05
-2.39129e-07
1.44934e-05
-2.55452e-07
1.44854e-05
-2.95647e-07
1.44852e-05
-2.77975e-07
1.4479e-05
-1.98329e-07
1.44658e-05
-1.59592e-07
1.44545e-05
-1.41688e-07
1.44486e-05
-1.22236e-07
1.44482e-05
-7.86524e-08
1.44513e-05
-3.63999e-08
1.44535e-05
-3.34518e-09
1.4455e-05
8.84427e-09
1.44576e-05
2.03405e-08
1.4462e-05
2.99415e-08
1.44685e-05
4.33813e-08
5.1395e-08
1.44745e-05
1.52444e-05
-3.94149e-08
1.52377e-05
-1.30401e-07
1.52165e-05
-3.3812e-07
1.52115e-05
-3.42231e-07
1.52043e-05
-2.31939e-07
1.51892e-05
-2.40367e-07
1.51766e-05
-2.83038e-07
1.51743e-05
-2.75751e-07
1.51724e-05
-1.96346e-07
1.51616e-05
-1.4883e-07
1.51496e-05
-1.29661e-07
1.51427e-05
-1.15327e-07
1.51416e-05
-7.76087e-08
1.51445e-05
-3.92848e-08
1.51474e-05
-6.26292e-09
1.51491e-05
7.17394e-09
1.51513e-05
1.81322e-08
1.51551e-05
2.61824e-08
1.51607e-05
3.77129e-08
4.54803e-08
1.51666e-05
1.59715e-05
-4.35599e-08
1.59664e-05
-1.2534e-07
1.59427e-05
-3.14368e-07
1.59369e-05
-3.36432e-07
1.59333e-05
-2.28359e-07
1.59188e-05
-2.25872e-07
1.59029e-05
-2.67121e-07
1.58969e-05
-2.69818e-07
1.58974e-05
-1.96785e-07
1.58902e-05
-1.4166e-07
1.58784e-05
-1.17882e-07
1.58705e-05
-1.07395e-07
1.58685e-05
-7.56286e-08
1.5871e-05
-4.17748e-08
1.58743e-05
-9.52183e-09
1.58764e-05
5.04717e-09
1.58784e-05
1.61199e-08
1.58816e-05
2.29999e-08
1.58865e-05
3.28026e-08
3.99002e-08
1.58921e-05
1.67332e-05
-4.61168e-08
1.67287e-05
-1.20895e-07
1.67037e-05
-2.89334e-07
1.66958e-05
-3.28567e-07
1.66958e-05
-2.28363e-07
1.66833e-05
-2.13346e-07
1.66656e-05
-2.4938e-07
1.66556e-05
-2.59901e-07
1.6656e-05
-1.97126e-07
1.66526e-05
-1.38262e-07
1.66423e-05
-1.07608e-07
1.66337e-05
-9.87466e-08
1.66306e-05
-7.25504e-08
1.66324e-05
-4.35991e-08
1.66357e-05
-1.28382e-08
1.66383e-05
2.51356e-09
1.66404e-05
1.3997e-08
1.66431e-05
2.03167e-08
1.66473e-05
2.85688e-08
3.47937e-08
1.66524e-05
1.75314e-05
-4.71681e-08
1.75291e-05
-1.1855e-07
1.75036e-05
-2.63842e-07
1.74913e-05
-3.16314e-07
1.74935e-05
-2.30523e-07
1.74838e-05
-2.03685e-07
1.74656e-05
-2.31192e-07
1.74525e-05
-2.46782e-07
1.74507e-05
-1.95323e-07
1.74501e-05
-1.37644e-07
1.74424e-05
-9.9892e-08
1.74336e-05
-9.0021e-08
1.74295e-05
-6.83653e-08
1.74304e-05
-4.45034e-08
1.74336e-05
-1.60433e-08
1.74363e-05
-2.07265e-10
1.74387e-05
1.16238e-08
1.74411e-05
1.78527e-08
1.74447e-05
2.5029e-08
3.01928e-08
1.74493e-05
1.83681e-05
-4.69034e-08
1.83666e-05
-1.17113e-07
1.83427e-05
-2.39933e-07
1.83266e-05
-3.00218e-07
1.83284e-05
-2.32281e-07
1.83218e-05
-1.97136e-07
1.83044e-05
-2.13721e-07
1.8289e-05
-2.31435e-07
1.82843e-05
-1.90569e-07
1.82847e-05
-1.38028e-07
1.82798e-05
-9.50473e-08
1.82719e-05
-8.20792e-08
1.82669e-05
-6.34119e-08
1.82667e-05
-4.42667e-08
1.82695e-05
-1.88795e-08