/*--------------------------------*- C++ -*----------------------------------*\
| =========                 |                                                 |
| \\      /  F ield         | OpenFOAM: The Open Source CFD Toolbox           |
|  \\    /   O peration     | Version:  3.0.1                                 |
|   \\  /    A nd           | Web:      www.OpenFOAM.org                      |
|    \\/     M anipulation  |                                                 |
\*---------------------------------------------------------------------------*/
FoamFile
{
    version     2.0;
    format      ascii;
    class       volVectorField;
    location    "4.6";
    object      U;
}
// * * * * * * * * * * * * * * * * * * * * * * * * * * * * * * * * * * * * * //

dimensions      [0 1 -1 0 0 0 0];

internalField   nonuniform List<vector> 
9600
(
(0.622869 0.000421611 0)
(1.32384 0.0025851 0)
(0.618142 -0.0233541 0)
(1.44205 -0.00451124 0)
(0.832119 0.0097226 0)
(1.19566 0.016826 0)
(0.724182 -0.012142 0)
(1.21424 -0.0154935 0)
(0.768877 -0.0278526 0)
(1.29707 -0.0143157 0)
(0.778101 -0.00740339 0)
(1.24686 0.00444008 0)
(0.854412 -0.000757316 0)
(1.21433 0.00749673 0)
(0.879851 0.00197416 0)
(1.17441 0.00585867 0)
(0.879429 0.000458574 0)
(1.13812 0.00178186 0)
(0.867059 0.000985249 0)
(1.12634 0.00254696 0)
(0.642123 0.000608653 0)
(1.30204 0.00307648 0)
(0.642231 -0.0250464 0)
(1.42402 -0.00610264 0)
(0.853823 0.0112042 0)
(1.17755 0.0181247 0)
(0.798912 -0.0127969 0)
(1.18739 -0.0156874 0)
(0.819997 -0.0297761 0)
(1.27498 -0.0140311 0)
(0.821478 -0.00702921 0)
(1.21892 0.0036381 0)
(0.901888 -0.000627375 0)
(1.18056 0.00725517 0)
(0.941274 0.00271784 0)
(1.1262 0.00584132 0)
(0.961971 0.00161038 0)
(1.06644 0.00172712 0)
(0.975856 0.00240828 0)
(1.01512 0.00204148 0)
(0.678961 0.000818724 0)
(1.26261 0.00338128 0)
(0.681253 -0.0263812 0)
(1.38056 -0.00738737 0)
(0.898485 0.0132943 0)
(1.15403 0.0189741 0)
(0.882367 -0.0130851 0)
(1.14861 -0.0156462 0)
(0.878173 -0.030973 0)
(1.22737 -0.0137166 0)
(0.891787 -0.00652292 0)
(1.1676 0.00262918 0)
(0.97077 -0.000259916 0)
(1.13202 0.00676688 0)
(1.01029 0.00376664 0)
(1.08311 0.00553085 0)
(1.02192 0.00288908 0)
(1.03606 0.00162397 0)
(1.01401 0.00344312 0)
(1.0068 0.00288934 0)
(0.729935 0.00105869 0)
(1.21015 0.00364845 0)
(0.732878 -0.0275874 0)
(1.31151 -0.00886165 0)
(0.954702 0.0149887 0)
(1.13529 0.0192987 0)
(0.962701 -0.0130314 0)
(1.10822 -0.0154535 0)
(0.93177 -0.0319273 0)
(1.16323 -0.0138837 0)
(0.959369 -0.00583784 0)
(1.11361 0.0015797 0)
(1.02443 0.000101649 0)
(1.09642 0.00619338 0)
(1.05193 0.00459596 0)
(1.06832 0.00539747 0)
(1.04695 0.00382716 0)
(1.03841 0.00206786 0)
(1.02505 0.00425057 0)
(1.0164 0.00392028 0)
(0.789702 0.0013517 0)
(1.15179 0.00387571 0)
(0.78925 -0.0285245 0)
(1.22475 -0.0106156 0)
(1.00775 0.0160684 0)
(1.12719 0.0193665 0)
(1.02799 -0.012548 0)
(1.07664 -0.0150025 0)
(0.968695 -0.032347 0)
(1.09934 -0.0143398 0)
(1.00262 -0.0052477 0)
(1.0746 0.000627936 0)
(1.05068 0.000112328 0)
(1.07987 0.00573933 0)
(1.07018 0.0050652 0)
(1.06956 0.00556211 0)
(1.05809 0.00456204 0)
(1.04681 0.00271654 0)
(1.03372 0.00508996 0)
(1.02371 0.00492761 0)
(0.851 0.00167257 0)
(1.09701 0.00407702 0)
(0.841501 -0.0291258 0)
(1.13467 -0.0124767 0)
(1.04688 0.0164416 0)
(1.12954 0.0192872 0)
(1.07391 -0.0117014 0)
(1.05925 -0.0142233 0)
(0.987917 -0.0322536 0)
(1.04928 -0.0149186 0)
(1.01947 -0.00504702 0)
(1.05297 -0.000157415 0)
(1.05764 -0.000190465 0)
(1.07374 0.00532926 0)
(1.07704 0.00529515 0)
(1.07396 0.00580256 0)
(1.06472 0.00521393 0)
(1.05344 0.00342726 0)
(1.04084 0.00595466 0)
(1.02975 0.00599564 0)
(0.906152 0.00197012 0)
(1.05453 0.00430793 0)
(0.883792 -0.0293583 0)
(1.05712 -0.0143225 0)
(1.06807 0.0159643 0)
(1.13671 0.0190834 0)
(1.10163 -0.0105866 0)
(1.05384 -0.0131079 0)
(0.995657 -0.0316758 0)
(1.01667 -0.0154867 0)
(1.01957 -0.00526472 0)
(1.042 -0.000896839 0)
(1.05634 -0.000704891 0)
(1.07054 0.00483089 0)
(1.07882 0.00535198 0)
(1.07672 0.00600004 0)
(1.06836 0.00583417 0)
(1.05729 0.00418917 0)
(1.04518 0.00681595 0)
(1.03395 0.00713737 0)
(0.949259 0.00218893 0)
(1.02857 0.00460689 0)
(0.915342 -0.0292512 0)
(1.00242 -0.0160978 0)
(1.07328 0.0146292 0)
(1.14162 0.0187442 0)
(1.11421 -0.00931347 0)
(1.05416 -0.0117423 0)
(0.998562 -0.0306917 0)
(0.997845 -0.0159721 0)
(1.01296 -0.00577629 0)
(1.03504 -0.00173398 0)
(1.05237 -0.0013646 0)
(1.06713 0.00422207 0)
(1.07752 0.00527798 0)
(1.07664 0.00615275 0)
(1.06895 0.00643371 0)
(1.05815 0.00499626 0)
(1.04656 0.0076659 0)
(1.03564 0.00830173 0)
(0.977839 0.00228806 0)
(1.01761 0.0049644 0)
(0.9389 -0.0288595 0)
(0.971429 -0.0177145 0)
(1.0675 0.0126741 0)
(1.13955 0.0182679 0)
(1.1147 -0.00798112 0)
(1.05452 -0.0102669 0)
(1.00041 -0.0294046 0)
(0.98773 -0.0163403 0)
(1.00534 -0.00645237 0)
(1.02842 -0.00268972 0)
(1.04653 -0.00211153 0)
(1.06196 0.00353512 0)
(1.07331 0.00511902 0)
(1.0733 0.00628506 0)
(1.06629 0.00699821 0)
(1.05597 0.00583321 0)
(1.0451 0.00849883 0)
(1.03477 0.00944268 0)
(0.993137 0.00225927 0)
(1.01624 0.00532668 0)
(0.95767 -0.028244 0)
(0.958123 -0.0190892 0)
(1.05552 0.0104369 0)
(1.12893 0.017696 0)
(1.10585 -0.00667237 0)
(1.0519 -0.0088354 0)
(1.00231 -0.0279374 0)
(0.982881 -0.0165721 0)
(0.998719 -0.00717194 0)
(1.02079 -0.00370006 0)
(1.0381 -0.00290056 0)
(1.05381 0.00279018 0)
(1.0658 0.00489933 0)
(1.06656 0.00639708 0)
(1.0604 0.00751041 0)
(1.05092 0.00668086 0)
(1.04111 0.00930946 0)
(1.03169 0.0105239 0)
(0.998957 0.00213014 0)
(1.01845 0.00561973 0)
(0.973312 -0.0274743 0)
(0.95511 -0.0201568 0)
(1.04029 0.00821217 0)
(1.11056 0.0170748 0)
(1.09057 -0.00546689 0)
(1.04585 -0.00758313 0)
(1.00404 -0.0264159 0)
(0.981462 -0.0166593 0)
(0.993527 -0.00781604 0)
(1.01225 -0.00465882 0)
(1.02714 -0.00368582 0)
(1.04235 0.00200655 0)
(1.05491 0.0046113 0)
(1.05666 0.00646635 0)
(1.05172 0.00795788 0)
(1.04362 0.0075081 0)
(1.03525 0.0100741 0)
(1.02707 0.0115045 0)
(0.999691 0.00194746 0)
(1.02027 0.00578846 0)
(0.985918 -0.0266281 0)
(0.957133 -0.0208876 0)
(1.02364 0.00620791 0)
(1.08698 0.0164369 0)
(1.07213 -0.00443183 0)
(1.03754 -0.00660155 0)
(1.00506 -0.0249533 0)
(0.982299 -0.0166131 0)
(0.989821 -0.0082958 0)
(1.00384 -0.00546915 0)
(1.01507 -0.00440312 0)
(1.02871 0.00122126 0)
(1.04156 0.00423887 0)
(1.04451 0.00646834 0)
(1.04123 0.00831363 0)
(1.03502 0.00825442 0)
(1.02846 0.0107484 0)
(1.02176 0.0123519 0)
(0.99869 0.00175361 0)
(1.02028 0.00582392 0)
(0.995143 -0.0257746 0)
(0.961281 -0.0212871 0)
(1.00755 0.00453557 0)
(1.06207 0.0158002 0)
(1.0539 -0.00360601 0)
(1.0287 -0.00592441 0)
(1.00514 -0.0236291 0)
(0.984342 -0.0164705 0)
(0.9876 -0.00857716 0)
(0.996812 -0.00607592 0)
(1.004 -0.0049893 0)
(1.01504 0.000483212 0)
(1.02757 0.00378797 0)
(1.03159 0.00638053 0)
(1.03014 0.00853354 0)
(1.02613 0.00884981 0)
(1.02163 0.0113008 0)
(1.01651 0.0130575 0)
(0.997704 0.0015747 0)
(1.01879 0.00574755 0)
(1.00112 -0.024954 0)
(0.965973 -0.0214088 0)
(0.99421 0.00322061 0)
(1.0398 0.0151636 0)
(1.03849 -0.00299873 0)
(1.02082 -0.00553064 0)
(1.00438 -0.0224742 0)
(0.986634 -0.0162789 0)
(0.986713 -0.0086778 0)
(0.991977 -0.00647454 0)
(0.995622 -0.00541713 0)
(1.00347 -0.000161718 0)
(1.01488 0.00329161 0)
(1.01945 0.00619222 0)
(1.01964 0.0085944 0)
(1.01774 0.00925573 0)
(1.0153 0.0117261 0)
(1.01175 0.0136182 0)
(0.997252 0.00142 0)
(1.01663 0.00559791 0)
(1.00456 -0.0241824 0)
(0.970311 -0.0213191 0)
(0.984928 0.00222897 0)
(1.02274 0.0145197 0)
(1.02709 -0.00258722 0)
(1.01467 -0.0053597 0)
(1.00318 -0.0214738 0)
(0.988506 -0.016077 0)
(0.986781 -0.00864949 0)
(0.989361 -0.00670421 0)
(0.99047 -0.00568908 0)
(0.995167 -0.000672097 0)
(1.00482 0.0028024 0)
(1.00925 0.00592364 0)
(1.01052 0.00852079 0)
(1.01029 0.00947786 0)
(1.00964 0.0120241 0)
(1.00751 0.0140254 0)
(0.997259 0.00128949 0)
(1.01444 0.00540389 0)
(1.00635 -0.0234564 0)
(0.973887 -0.0210825 0)
(0.979603 0.0014905 0)
(1.01126 0.0138661 0)
(1.01947 -0.00232371 0)
(1.01029 -0.00533792 0)
(1.0019 -0.0205884 0)
(0.989709 -0.015887 0)
(0.987315 -0.00855521 0)
(0.988381 -0.00681444 0)
(0.987985 -0.00583265 0)
(0.990089 -0.0010262 0)
(0.997786 0.00237403 0)
(1.00146 0.00561974 0)
(1.00315 0.00836742 0)
(1.00396 0.00955269 0)
(1.00467 0.0121935 0)
(1.00369 0.0142848 0)
(0.997512 0.00117977 0)
(1.01252 0.00517929 0)
(1.0072 -0.022765 0)
(0.976654 -0.0207534 0)
(0.977159 0.000934051 0)
(1.0042 0.0132078 0)
(1.01465 -0.00215871 0)
(1.00732 -0.00540498 0)
(1.00079 -0.0197802 0)
(0.990337 -0.0157131 0)
(0.987912 -0.00844518 0)
(0.988282 -0.00684782 0)
(0.987151 -0.00588943 0)
(0.987431 -0.00123209 0)
(0.993379 0.0020424 0)
(0.995998 0.00532495 0)
(0.997554 0.00818836 0)
(0.99882 0.00952863 0)
(1.00041 0.0122441 0)
(1.00029 0.0144265 0)
(0.997839 0.00108606 0)
(1.01096 0.00493571 0)
(1.00752 -0.0220944 0)
(0.978745 -0.0203743 0)
(0.976376 0.000498973 0)
(1.00003 0.012552 0)
(1.01161 -0.00205357 0)
(1.00534 -0.00552157 0)
(0.999942 -0.0190215 0)
(0.990636 -0.015547 0)
(0.988371 -0.00834708 0)
(0.988479 -0.00683818 0)
(0.987073 -0.0058916 0)
(0.986225 -0.0013267 0)
(0.990866 0.00181569 0)
(0.992443 0.00506672 0)
(0.993551 0.00802092 0)
(0.994896 0.0094527 0)
(0.996992 0.0121966 0)
(0.997445 0.0144832 0)
(0.998148 0.00100515 0)
(1.00975 0.00467816 0)
(1.00752 -0.0214375 0)
(0.980323 -0.0199685 0)
(0.976392 0.000147928 0)
(0.997553 0.0118938 0)
(1.0096 -0.00199258 0)
(1.00401 -0.00566702 0)
(0.999334 -0.0182955 0)
(0.990826 -0.0153763 0)
(0.988663 -0.00827311 0)
(0.988661 -0.00680021 0)
(0.987202 -0.00586013 0)
(0.985731 -0.00135499 0)
(0.989522 0.0016775 0)
(0.99029 0.00485271 0)
(0.990874 0.00788431 0)
(0.99213 0.00936357 0)
(0.994498 0.0120716 0)
(0.995311 0.0144683 0)
(0.998391 0.00093408 0)
(1.00885 0.00441006 0)
(1.00732 -0.0207876 0)
(0.981524 -0.0195481 0)
(0.976739 -0.000144836 0)
(0.996088 0.01123 0)
(1.00822 -0.00196438 0)
(1.00313 -0.00582644 0)
(0.998907 -0.0175925 0)
(0.991037 -0.0151925 0)
(0.988841 -0.00821913 0)
(0.98874 -0.00674291 0)
(0.9873 -0.00580782 0)
(0.985537 -0.00133739 0)
(0.988815 0.00160487 0)
(0.989085 0.00467574 0)
(0.989221 0.00777898 0)
(0.990376 0.00928531 0)
(0.992915 0.0118874 0)
(0.993957 0.0143787 0)
(0.99855 0.000869997 0)
(1.00822 0.00413382 0)
(1.00699 -0.0201377 0)
(0.98246 -0.0191216 0)
(0.977208 -0.000400239 0)
(0.995275 0.0105683 0)
(1.00726 -0.00195785 0)
(1.00255 -0.00598794 0)
(0.998594 -0.0169084 0)
(0.991311 -0.014988 0)
(0.988966 -0.00817674 0)
(0.98874 -0.00666478 0)
(0.987327 -0.00574925 0)
(0.985479 -0.00130089 0)
(0.988444 0.00157304 0)
(0.988492 0.00452235 0)
(0.98831 0.00768662 0)
(0.989423 0.00922178 0)
(0.992105 0.0116636 0)
(0.993314 0.0142161 0)
(0.998621 0.000811171 0)
(1.00781 0.00385016 0)
(1.00658 -0.0194841 0)
(0.983229 -0.0186897 0)
(0.977717 -0.000628078 0)
(0.994909 0.00990566 0)
(1.00657 -0.00197535 0)
(1.00218 -0.00614566 0)
(0.998339 -0.0162432 0)
(0.991646 -0.0147546 0)
(0.989085 -0.00814195 0)
(0.98872 -0.00657141 0)
(0.987317 -0.00568597 0)
(0.985522 -0.00126843 0)
(0.988278 0.00156381 0)
(0.9883 0.00438017 0)
(0.987919 0.00758864 0)
(0.989054 0.00916069 0)
(0.99187 0.0114154 0)
(0.993219 0.0139966 0)
(0.998609 0.000756299 0)
(1.00756 0.00356012 0)
(1.00613 -0.0188228 0)
(0.983913 -0.0182532 0)
(0.978244 -0.000842116 0)
(0.99484 0.00923944 0)
(1.00605 -0.00201382 0)
(1.00193 -0.00629601 0)
(0.998103 -0.0155928 0)
(0.992018 -0.0144927 0)
(0.989225 -0.00811009 0)
(0.988726 -0.00647094 0)
(0.987322 -0.00560947 0)
(0.985667 -0.00123961 0)
(0.988267 0.00157012 0)
(0.988377 0.00423871 0)
(0.987879 0.00747549 0)
(0.989073 0.00909358 0)
(0.992015 0.0111438 0)
(0.993481 0.0137329 0)
(0.998535 0.000704313 0)
(1.00739 0.00326342 0)
(1.00566 -0.0181529 0)
(0.984568 -0.0178115 0)
(0.978793 -0.00104953 0)
(0.994943 0.00856907 0)
(1.00562 -0.00206749 0)
(1.00174 -0.00643487 0)
(0.997865 -0.0149599 0)
(0.992401 -0.0142108 0)
(0.989403 -0.0080731 0)
(0.988777 -0.0063557 0)
(0.987378 -0.00552222 0)
(0.985911 -0.00121972 0)
(0.988376 0.00158536 0)
(0.988628 0.00409568 0)
(0.988063 0.00733936 0)
(0.989316 0.0090189 0)
(0.992369 0.0108469 0)
(0.993935 0.0134119 0)
(0.998425 0.000654839 0)
(1.00726 0.00295961 0)
(1.0052 -0.0174761 0)
(0.985221 -0.0173628 0)
(0.979372 -0.0012524 0)
(0.995121 0.00789673 0)
(1.00523 -0.00213755 0)
(1.00156 -0.0065535 0)
(0.99762 -0.0143428 0)
(0.992772 -0.0139143 0)
(0.989626 -0.00803316 0)
(0.988872 -0.00622954 0)
(0.987497 -0.00542867 0)
(0.986232 -0.00121708 0)
(0.988575 0.00160088 0)
(0.988976 0.00395417 0)
(0.988373 0.0071805 0)
(0.989656 0.00893697 0)
(0.9928 0.010536 0)
(0.994459 0.0130082 0)
(0.998307 0.00060881 0)
(1.00712 0.00265099 0)
(1.00475 -0.0167971 0)
(0.985873 -0.0169091 0)
(0.979992 -0.00145558 0)
(0.995312 0.00722593 0)
(1.00486 -0.00222667 0)
(1.00135 -0.00665507 0)
(0.997374 -0.0137366 0)
(0.993116 -0.0136001 0)
(0.989894 -0.00799522 0)
(0.988998 -0.00609583 0)
(0.987676 -0.00532532 0)
(0.986609 -0.00123335 0)
(0.988833 0.00161324 0)
(0.989364 0.00380839 0)
(0.988741 0.00699572 0)
(0.990009 0.00885449 0)
(0.993223 0.0102416 0)
(0.99498 0.0125206 0)
(0.998205 0.00056631 0)
(1.00696 0.00233904 0)
(1.00432 -0.016119 0)
(0.986512 -0.0164477 0)
(0.980654 -0.00166011 0)
(0.995483 0.00655628 0)
(1.0045 -0.00233126 0)
(1.00113 -0.00674538 0)
(0.997138 -0.0131461 0)
(0.993425 -0.0132682 0)
(0.990198 -0.00795806 0)
(0.989143 -0.00595632 0)
(0.987901 -0.00520722 0)
(0.987018 -0.00126368 0)
(0.989128 0.00162524 0)
(0.989758 0.00365995 0)
(0.989135 0.00676595 0)
(0.990341 0.00876047 0)
(0.993591 0.00999914 0)
(0.99546 0.0119886 0)
(0.998134 0.000526778 0)
(1.00676 0.00202517 0)
(1.00392 -0.0154433 0)
(0.987126 -0.0159741 0)
(0.981357 -0.00186097 0)
(0.995624 0.00589591 0)
(1.00415 -0.00244517 0)
(1.00089 -0.00682126 0)
(0.996919 -0.0125751 0)
(0.9937 -0.0129174 0)
(0.990529 -0.00792351 0)
(0.989297 -0.00581329 0)
(0.988155 -0.00507443 0)
(0.987444 -0.00130057 0)
(0.989444 0.00163511 0)
(0.99014 0.00352946 0)
(0.989539 0.00649538 0)
(0.99065 0.00861747 0)
(0.993896 0.00980939 0)
(0.99588 0.0114798 0)
(0.998101 0.000490614 0)
(1.00652 0.00171232 0)
(1.00355 -0.0147733 0)
(0.987711 -0.0154925 0)
(0.982093 -0.00206469 0)
(0.995741 0.00524906 0)
(1.00381 -0.00256584 0)
(1.00064 -0.00688341 0)
(0.996716 -0.0120228 0)
(0.993946 -0.0125502 0)
(0.990879 -0.00788486 0)
(0.989456 -0.00566707 0)
(0.988422 -0.00492449 0)
(0.987876 -0.00134546 0)
(0.989773 0.00163242 0)
(0.990503 0.00342681 0)
(0.989945 0.00622143 0)
(0.990951 0.00840977 0)
(0.994154 0.00962413 0)
(0.996237 0.0110394 0)
(0.998101 0.000458193 0)
(1.00625 0.00140195 0)
(1.00321 -0.0141154 0)
(0.988268 -0.0149983 0)
(0.982851 -0.00227077 0)
(0.995841 0.00460881 0)
(1.00347 -0.00269638 0)
(1.00037 -0.00693652 0)
(0.996527 -0.0114937 0)
(0.994168 -0.0121743 0)
(0.99124 -0.00784613 0)
(0.989623 -0.00552478 0)
(0.988692 -0.00476147 0)
(0.988309 -0.00139198 0)
(0.990111 0.00161416 0)
(0.990849 0.00333827 0)
(0.990345 0.00596558 0)
(0.991247 0.00816531 0)
(0.994384 0.00939962 0)
(0.996544 0.0106495 0)
(0.998128 0.00042962 0)
(1.00597 0.00109504 0)
(1.0029 -0.0134698 0)
(0.988801 -0.0144959 0)
(0.983619 -0.00247133 0)
(0.995934 0.00397594 0)
(1.00313 -0.00282892 0)
(1.0001 -0.00697979 0)
(0.996348 -0.010993 0)
(0.994368 -0.0117831 0)
(0.991605 -0.00780487 0)
(0.989801 -0.00538439 0)
(0.988957 -0.00459289 0)
(0.988739 -0.00143557 0)
(0.990453 0.00158504 0)
(0.991182 0.00325201 0)
(0.990739 0.00571197 0)
(0.991541 0.00791157 0)
(0.994596 0.00914351 0)
(0.996813 0.0102632 0)
(0.998173 0.000403666 0)
(1.00568 0.000797098 0)
(1.0026 -0.012843 0)
(0.989317 -0.013983 0)
(0.984387 -0.00267117 0)
(0.996027 0.00335153 0)
(1.0028 -0.00296195 0)
(0.999825 -0.00700686 0)
(0.996177 -0.0105138 0)
(0.994551 -0.0113737 0)
(0.991971 -0.00775046 0)
(0.989992 -0.0052474 0)
(0.989215 -0.00440756 0)
(0.989167 -0.00147423 0)
(0.990798 0.00154991 0)
(0.9915 0.00318046 0)
(0.991127 0.00544672 0)
(0.991837 0.00764273 0)
(0.994789 0.00888896 0)
(0.997051 0.00987112 0)
(0.998228 0.00037925 0)
(1.00539 0.000512608 0)
(1.00232 -0.0122368 0)
(0.98982 -0.0134605 0)
(0.985147 -0.00286849 0)
(0.996122 0.00273288 0)
(1.00246 -0.00309725 0)
(0.999557 -0.00701061 0)
(0.996014 -0.0100585 0)
(0.994715 -0.0109622 0)
(0.992331 -0.00768803 0)
(0.990198 -0.0051232 0)
(0.989465 -0.00420644 0)
(0.989591 -0.00150548 0)
(0.99115 0.00150416 0)
(0.991803 0.00313496 0)
(0.991504 0.00518668 0)
(0.992142 0.00733616 0)
(0.99497 0.00864064 0)
(0.997253 0.00950206 0)
(0.998289 0.000358431 0)
(1.0051 0.000237513 0)
(1.00205 -0.0116463 0)
(0.990313 -0.0129393 0)
(0.985895 -0.00305473 0)
(0.996221 0.00213018 0)
(1.00214 -0.00323748 0)
(0.999296 -0.00700337 0)
(0.995858 -0.00963826 0)
(0.994861 -0.010557 0)
(0.992684 -0.00761289 0)
(0.990419 -0.00500554 0)
(0.989708 -0.00399855 0)
(0.990009 -0.00153373 0)
(0.991511 0.00143845 0)
(0.992095 0.00310693 0)
(0.991863 0.00496243 0)
(0.992456 0.00699583 0)
(0.99515 0.00836881 0)
(0.997417 0.00917469 0)
(0.998352 0.000340223 0)
(1.00482 -2.65378e-05 0)
(1.0018 -0.0110751 0)
(0.990797 -0.0124176 0)
(0.986629 -0.00323296 0)
(0.996322 0.00153897 0)
(1.00182 -0.00338788 0)
(0.999044 -0.00698626 0)
(0.995711 -0.00924268 0)
(0.994991 -0.010153 0)
(0.99303 -0.00752586 0)
(0.990654 -0.00489234 0)
(0.989942 -0.00378603 0)
(0.990416 -0.00155272 0)
(0.991883 0.00134795 0)
(0.992381 0.00307468 0)
(0.992198 0.00477995 0)
(0.99277 0.00665235 0)
(0.995339 0.00805208 0)
(0.997549 0.00887541 0)
(0.998414 0.000323456 0)
(1.00454 -0.000275433 0)
(1.00156 -0.0105229 0)
(0.991273 -0.0119057 0)
(0.987347 -0.00339523 0)
(0.996425 0.0009608 0)
(1.00151 -0.00354139 0)
(0.998803 -0.00694347 0)
(0.995572 -0.00885748 0)
(0.995104 -0.00974702 0)
(0.993367 -0.00742912 0)
(0.990903 -0.00477933 0)
(0.990167 -0.00356544 0)
(0.990806 -0.00155755 0)
(0.992262 0.00123281 0)
(0.992668 0.00302383 0)
(0.992509 0.0046221 0)
(0.993074 0.00632499 0)
(0.995539 0.00769669 0)
(0.997663 0.00857411 0)
(0.998476 0.000309267 0)
(1.00427 -0.000512367 0)
(1.00133 -0.00998516 0)
(0.991739 -0.0114055 0)
(0.988047 -0.00354665 0)
(0.99653 0.000410306 0)
(1.00121 -0.00370451 0)
(0.998574 -0.00688454 0)
(0.995442 -0.00848616 0)
(0.995198 -0.00934431 0)
(0.993695 -0.00733114 0)
(0.991168 -0.00468061 0)
(0.990385 -0.00333582 0)
(0.991173 -0.00154286 0)
(0.992645 0.00110026 0)
(0.992959 0.00295467 0)
(0.992799 0.00448185 0)
(0.99336 0.00602059 0)
(0.995746 0.00732316 0)
(0.99777 0.00825595 0)
(0.998536 0.000297124 0)
(1.00401 -0.000737416 0)
(1.00112 -0.00945446 0)
(0.992193 -0.010921 0)
(0.988728 -0.00368898 0)
(0.996635 -0.000123958 0)
(1.00092 -0.00388259 0)
(0.998359 -0.00682093 0)
(0.99532 -0.0081304 0)
(0.995272 -0.00894767 0)
(0.994011 -0.00723231 0)
(0.991453 -0.00459995 0)
(0.990601 -0.00310931 0)
(0.991513 -0.00150084 0)
(0.993028 0.000950925 0)
(0.993256 0.00286129 0)
(0.99307 0.00435538 0)
(0.993621 0.00573877 0)
(0.995955 0.00694097 0)
(0.997885 0.00790824 0)
(0.998595 0.000286178 0)
(1.00376 -0.000950391 0)
(1.00091 -0.00893252 0)
(0.992636 -0.0104556 0)
(0.989388 -0.00381788 0)
(0.996738 -0.00062774 0)
(1.00065 -0.00407135 0)
(0.998161 -0.0067612 0)
(0.995208 -0.00778884 0)
(0.995325 -0.00855052 0)
(0.994314 -0.00711607 0)
(0.991757 -0.00453264 0)
(0.990818 -0.00288733 0)
(0.991824 -0.00143138 0)
(0.993404 0.000789115 0)
(0.993565 0.0027363 0)
(0.993325 0.00424409 0)
(0.993852 0.005488 0)
(0.996156 0.00656051 0)
(0.998018 0.00751081 0)
(0.998652 0.000278076 0)
(1.00352 -0.00115544 0)
(1.00073 -0.00842091 0)
(0.993066 -0.0100077 0)
(0.990028 -0.00394288 0)
(0.996838 -0.00107851 0)
(1.00039 -0.0042552 0)
(0.997984 -0.00670182 0)
(0.995109 -0.00746695 0)
(0.995358 -0.0081494 0)
(0.994597 -0.00698724 0)
(0.992081 -0.00449122 0)
(0.991044 -0.00267348 0)
(0.992103 -0.00133889 0)
(0.993767 0.000628418 0)
(0.993888 0.00256734 0)
(0.993572 0.00413645 0)
(0.994046 0.00527959 0)
(0.996329 0.00620787 0)
(0.998167 0.00706776 0)
(0.998708 0.000272449 0)
(1.00329 -0.00134986 0)
(1.00056 -0.00792751 0)
(0.993481 -0.00956699 0)
(0.990648 -0.00406355 0)
(0.996937 -0.00148306 0)
(1.00014 -0.00442975 0)
(0.997826 -0.00664635 0)
(0.995026 -0.00716029 0)
(0.995374 -0.00774145 0)
(0.994857 -0.00683649 0)
(0.992424 -0.0044678 0)
(0.991284 -0.00248665 0)
(0.992349 -0.00122346 0)
(0.994106 0.000487848 0)
(0.994228 0.00235426 0)
(0.993825 0.00400435 0)
(0.99421 0.00510288 0)
(0.996459 0.00590249 0)
(0.998316 0.00661335 0)
(0.998763 0.000263299 0)
(1.00307 -0.00152395 0)
(1.0004 -0.00746538 0)
(0.993879 -0.00911247 0)
(0.991248 -0.00419617 0)
(0.997034 -0.00185632 0)
(0.999913 -0.00458804 0)
(0.997693 -0.00660283 0)
(0.994963 -0.00686927 0)
(0.995377 -0.00733387 0)
(0.995092 -0.00664937 0)
(0.992779 -0.00445569 0)
(0.991543 -0.00233836 0)
(0.99257 -0.0010924 0)
(0.994413 0.000379604 0)
(0.994577 0.0021166 0)
(0.994094 0.00383734 0)
(0.994355 0.00493825 0)
(0.99654 0.00564198 0)
(0.99844 0.0061893 0)
(0.998817 0.000255094 0)
(1.00287 -0.00168322 0)
(1.00026 -0.00703759 0)
(0.994259 -0.00864777 0)
(0.991826 -0.00434223 0)
(0.997132 -0.00221105 0)
(0.999697 -0.00470921 0)
(0.997582 -0.00656269 0)
(0.994925 -0.00661169 0)
(0.995371 -0.00693381 0)
(0.9953 -0.00643621 0)
(0.993143 -0.00444012 0)
(0.991827 -0.00222294 0)
(0.992772 -0.000964729 0)
(0.994682 0.000300456 0)
(0.994927 0.00186908 0)
(0.994385 0.00363863 0)
(0.994491 0.00477855 0)
(0.996575 0.00541007 0)
(0.998513 0.00582038 0)
(0.99887 0.000245645 0)
(1.00268 -0.00182305 0)
(1.00015 -0.00665505 0)
(0.994621 -0.00815556 0)
(0.992381 -0.00448672 0)
(0.997239 -0.00254714 0)
(0.999496 -0.00479096 0)
(0.997487 -0.0065186 0)
(0.994907 -0.00638546 0)
(0.995358 -0.00654193 0)
(0.99548 -0.00619362 0)
(0.993512 -0.00441609 0)
(0.992135 -0.00214359 0)
(0.992963 -0.000850919 0)
(0.994913 0.00024673 0)
(0.995273 0.00161996 0)
(0.994706 0.00340064 0)
(0.994631 0.00462113 0)
(0.996575 0.00519439 0)
(0.998524 0.00550769 0)
(0.998922 0.000229537 0)
(1.0025 -0.00193335 0)
(1.00005 -0.00632168 0)
(0.994964 -0.00763718 0)
(0.992908 -0.00461194 0)
(0.997355 -0.00286877 0)
(0.999312 -0.0048264 0)
(0.997413 -0.00645401 0)
(0.994921 -0.00619156 0)
(0.995349 -0.00617994 0)
(0.995634 -0.00591947 0)
(0.99388 -0.00437688 0)
(0.992469 -0.00210528 0)
(0.99315 -0.000761617 0)
(0.995104 0.000211555 0)
(0.995602 0.00138048 0)
(0.995059 0.00310683 0)
(0.994786 0.00444329 0)
(0.996547 0.00499448 0)
(0.998474 0.00523242 0)
(0.998974 0.000208035 0)
(1.00233 -0.00201163 0)
(0.999984 -0.00603348 0)
(0.995289 -0.00712606 0)
(0.993401 -0.00470332 0)
(0.997482 -0.00318832 0)
(0.99915 -0.00482826 0)
(0.997355 -0.00635935 0)
(0.994962 -0.00602529 0)
(0.995353 -0.00586452 0)
(0.995767 -0.00562862 0)
(0.99424 -0.00430847 0)
(0.992825 -0.00209604 0)
(0.993341 -0.000702798 0)
(0.99526 0.000188195 0)
(0.995899 0.0011715 0)
(0.995439 0.00277082 0)
(0.994976 0.0042112 0)
(0.996505 0.00481225 0)
(0.998379 0.00497578 0)
(0.999025 0.00018059 0)
(1.00217 -0.0020592 0)
(0.999941 -0.00579178 0)
(0.995601 -0.00662774 0)
(0.993856 -0.00473696 0)
(0.997621 -0.00350782 0)
(0.999016 -0.00482438 0)
(0.997311 -0.00621904 0)
(0.995029 -0.00587175 0)
(0.995375 -0.0055846 0)
(0.995885 -0.00533727 0)
(0.994587 -0.00421235 0)
(0.9932 -0.00210637 0)
(0.993542 -0.00067215 0)
(0.995391 0.000172066 0)
(0.996158 0.00100444 0)
(0.995827 0.00243638 0)
(0.995216 0.00391598 0)
(0.996468 0.00463195 0)
(0.998252 0.00473574 0)
(0.999076 0.000142893 0)
(1.00201 -0.00207007 0)
(0.999923 -0.00558676 0)
(0.995905 -0.00616021 0)
(0.994271 -0.00470254 0)
(0.997767 -0.00381635 0)
(0.998918 -0.00482686 0)
(0.997283 -0.00602514 0)
(0.995116 -0.00570258 0)
(0.995419 -0.00533709 0)
(0.995992 -0.0050562 0)
(0.994916 -0.00409469 0)
(0.993589 -0.0021213 0)
(0.993761 -0.00066426 0)
(0.995506 0.000154207 0)
(0.996379 0.00085829 0)
(0.996205 0.00211907 0)
(0.995504 0.0035691 0)
(0.996456 0.00442339 0)
(0.998102 0.00451533 0)
(0.999128 9.67292e-05 0)
(1.00186 -0.0020477 0)
(0.999927 -0.00540983 0)
(0.996206 -0.00574858 0)
(0.994643 -0.00459569 0)
(0.997914 -0.00408409 0)
(0.998863 -0.0048543 0)
(0.997276 -0.00579531 0)
(0.995215 -0.0054926 0)
(0.995483 -0.00512709 0)
(0.996099 -0.00480574 0)
(0.995228 -0.00396928 0)
(0.993987 -0.00213812 0)
(0.993998 -0.000672893 0)
(0.99561 0.000141542 0)
(0.996563 0.000732525 0)
(0.996563 0.00182328 0)
(0.995835 0.00319507 0)
(0.996491 0.00417344 0)
(0.997947 0.00430994 0)
(0.999178 4.21814e-05 0)
(1.00172 -0.00199831 0)
(0.999948 -0.00525012 0)
(0.996512 -0.00540225 0)
(0.994977 -0.00442111 0)
(0.99805 -0.00428942 0)
(0.99885 -0.00492541 0)
(0.9973 -0.00555785 0)
(0.995319 -0.00523961 0)
(0.995557 -0.00491997 0)
(0.996208 -0.00458054 0)
(0.995527 -0.00384121 0)
(0.994391 -0.00215892 0)
(0.994261 -0.000703011 0)
(0.995714 0.000133722 0)
(0.996712 0.000639191 0)
(0.996892 0.00155866 0)
(0.996197 0.00281016 0)
(0.996584 0.00388231 0)
(0.997801 0.00410372 0)
(0.999228 -2.24338e-05 0)
(1.00157 -0.00192109 0)
(0.999979 -0.00510137 0)
(0.996825 -0.00512294 0)
(0.995278 -0.00420921 0)
(0.998163 -0.00441831 0)
(0.998878 -0.00502165 0)
(0.997366 -0.00534598 0)
(0.995432 -0.00494915 0)
(0.995637 -0.00469044 0)
(0.996319 -0.00437367 0)
(0.995813 -0.00371476 0)
(0.994796 -0.00217119 0)
(0.994549 -0.000749278 0)
(0.995827 0.000120368 0)
(0.996831 0.000572472 0)
(0.997179 0.00133873 0)
(0.996577 0.00242347 0)
(0.996744 0.00354679 0)
(0.997689 0.00387764 0)
(0.999278 -9.23813e-05 0)
(1.00143 -0.00182656 0)
(1.00001 -0.00495589 0)
(0.99715 -0.00490819 0)
(0.995555 -0.00398273 0)
(0.998248 -0.00444825 0)
(0.998935 -0.00511723 0)
(0.997482 -0.0051932 0)
(0.995558 -0.00463812 0)
(0.995711 -0.00442998 0)
(0.996426 -0.00417092 0)
(0.996091 -0.00359817 0)
(0.995202 -0.0021821 0)
(0.99486 -0.000810652 0)
(0.995957 9.17318e-05 0)
(0.99693 0.000520137 0)
(0.997415 0.00117699 0)
(0.996949 0.00207195 0)
(0.996969 0.00318079 0)
(0.997629 0.00362675 0)
(0.999326 -0.00016586 0)
(1.00128 -0.00172385 0)
(1.00004 -0.004796 0)
(0.997485 -0.00475173 0)
(0.995819 -0.00376665 0)
(0.9983 -0.00436565 0)
(0.999003 -0.00518235 0)
(0.997654 -0.00512008 0)
(0.995714 -0.00434322 0)
(0.99578 -0.00413692 0)
(0.99652 -0.00394777 0)
(0.996353 -0.00348331 0)
(0.995605 -0.0021951 0)
(0.995194 -0.000878645 0)
(0.99611 5.24934e-05 0)
(0.997026 0.000466424 0)
(0.997609 0.00105228 0)
(0.997292 0.00177873 0)
(0.997242 0.00280736 0)
(0.997632 0.00335134 0)
(0.999373 -0.000241062 0)
(1.00114 -0.00161884 0)
(1.00006 -0.00461497 0)
(0.997826 -0.00464353 0)
(0.996084 -0.00357639 0)
(0.998322 -0.0041949 0)
(0.999059 -0.00516458 0)
(0.997872 -0.00510742 0)
(0.995914 -0.00410931 0)
(0.995849 -0.00382759 0)
(0.996594 -0.00370528 0)
(0.996594 -0.00335307 0)
(0.996003 -0.00220908 0)
(0.995549 -0.00096035 0)
(0.996283 2.38011e-06 0)
(0.997122 0.000413015 0)
(0.99777 0.000944597 0)
(0.997593 0.00154164 0)
(0.99754 0.00245262 0)
(0.997703 0.00305497 0)
(0.999418 -0.000311989 0)
(1.00101 -0.00152305 0)
(1.00007 -0.00440499 0)
(0.998168 -0.00456267 0)
(0.996358 -0.00341959 0)
(0.998323 -0.00398271 0)
(0.999087 -0.00504713 0)
(0.998116 -0.00511843 0)
(0.996169 -0.00396793 0)
(0.995933 -0.00352684 0)
(0.996646 -0.00343749 0)
(0.996803 -0.00320236 0)
(0.996381 -0.00221076 0)
(0.995923 -0.00105988 0)
(0.996486 -6.48774e-05 0)
(0.997224 0.000364573 0)
(0.997908 0.000851257 0)
(0.997851 0.00134818 0)
(0.997839 0.00213332 0)
(0.997831 0.00274674 0)
(0.999459 -0.000373258 0)
(1.00088 -0.00144173 0)
(1.00005 -0.00416272 0)
(0.998502 -0.00450075 0)
(0.996646 -0.00330518 0)
(0.998315 -0.00375559 0)
(0.999078 -0.00483676 0)
(0.998358 -0.00509995 0)
(0.996479 -0.00392071 0)
(0.99605 -0.00327436 0)
(0.99668 -0.00314752 0)
(0.996975 -0.0030309 0)
(0.99673 -0.00218527 0)
(0.996304 -0.00115786 0)
(0.996721 -0.00015267 0)
(0.997336 0.000310248 0)
(0.998025 0.000769653 0)
(0.998066 0.00118615 0)
(0.998122 0.00185225 0)
(0.998001 0.00243563 0)
(0.999496 -0.000423635 0)
(1.00076 -0.00137431 0)
(1.00001 -0.00388524 0)
(0.99882 -0.00443948 0)
(0.996951 -0.00324803 0)
(0.998313 -0.00353358 0)
(0.999034 -0.00456295 0)
(0.998571 -0.00500744 0)
(0.996827 -0.00392937 0)
(0.99622 -0.00309889 0)
(0.996709 -0.00285684 0)
(0.997106 -0.00283146 0)
(0.997039 -0.00213905 0)
(0.996677 -0.00124091 0)
(0.996983 -0.000261457 0)
(0.997469 0.000237194 0)
(0.998132 0.000693338 0)
(0.99824 0.00105149 0)
(0.998372 0.00161304 0)
(0.998194 0.00213956 0)
(0.999528 -0.000457445 0)
(1.00066 -0.00132916 0)
(0.999957 -0.00357473 0)
(0.999105 -0.00434752 0)
(0.99727 -0.00324188 0)
(0.998328 -0.00333084 0)
(0.998964 -0.00426691 0)
(0.998739 -0.00483618 0)
(0.997188 -0.00394944 0)
(0.996448 -0.00301296 0)
(0.99675 -0.00259998 0)
(0.997194 -0.00260582 0)
(0.9973 -0.00206527 0)
(0.997031 -0.00130398 0)
(0.99726 -0.000373643 0)
(0.997625 0.000145765 0)
(0.998239 0.000611901 0)
(0.998382 0.000936726 0)
(0.998584 0.00141192 0)
(0.998392 0.00187027 0)
(0.999555 -0.000475164 0)
(1.00057 -0.00130067 0)
(0.999887 -0.00325805 0)
(0.999348 -0.00420536 0)
(0.997596 -0.0032687 0)
(0.998369 -0.00317372 0)
(0.998878 -0.00396504 0)
(0.998855 -0.00460118 0)
(0.997531 -0.0039308 0)
(0.996727 -0.00299428 0)
(0.996828 -0.00240243 0)
(0.997252 -0.00237291 0)
(0.997502 -0.00195283 0)
(0.99735 -0.00134918 0)
(0.997542 -0.000484353 0)
(0.9978 4.60994e-05 0)
(0.998353 0.000518603 0)
(0.998501 0.00083216 0)
(0.998756 0.00124148 0)
(0.998581 0.00162712 0)
(0.999576 -0.000478495 0)
(1.0005 -0.00128345 0)
(0.999812 -0.00296388 0)
(0.999542 -0.00400929 0)
(0.997917 -0.00330221 0)
(0.998442 -0.00307016 0)
(0.998794 -0.00367154 0)
(0.998923 -0.00432221 0)
(0.997836 -0.00384874 0)
(0.997036 -0.00300421 0)
(0.996951 -0.00227359 0)
(0.997301 -0.00216227 0)
(0.997646 -0.00181322 0)
(0.997619 -0.00135537 0)
(0.99782 -0.000586685 0)
(0.997989 -5.60179e-05 0)
(0.998475 0.000419107 0)
(0.998608 0.00072893 0)
(0.998888 0.00110049 0)
(0.998749 0.00141254 0)
(0.999594 -0.000468546 0)
(1.00045 -0.00127689 0)
(0.999741 -0.00269896 0)
(0.99969 -0.00376654 0)
(0.998218 -0.00330783 0)
(0.99855 -0.00300616 0)
(0.998724 -0.00340118 0)
(0.998953 -0.00402246 0)
(0.998089 -0.0037108 0)
(0.997352 -0.00300727 0)
(0.997121 -0.00220411 0)
(0.99736 -0.00198758 0)
(0.99775 -0.0016652 0)
(0.997832 -0.00131824 0)