/*--------------------------------*- C++ -*----------------------------------*\
| =========                 |                                                 |
| \\      /  F ield         | OpenFOAM: The Open Source CFD Toolbox           |
|  \\    /   O peration     | Version:  3.0.1                                 |
|   \\  /    A nd           | Web:      www.OpenFOAM.org                      |
|    \\/     M anipulation  |                                                 |
\*---------------------------------------------------------------------------*/
FoamFile
{
    version     2.0;
    format      ascii;
    class       volScalarField;
    location    "2.5";
    object      p;
}
// * * * * * * * * * * * * * * * * * * * * * * * * * * * * * * * * * * * * * //

dimensions      [0 2 -2 0 0 0 0];

internalField   nonuniform List<scalar> 
9600
(
5.10503e-11
-0.000863644
-0.00207026
-0.00105037
0.000543059
-0.00112314
-0.00140015
0.00055776
-0.00026083
0.000243457
0.00116397
0.00252394
0.00256108
0.00273881
0.00426142
0.00585943
0.00802496
0.0097792
0.0140478
0.0193918
2.29757e-07
-0.000866644
-0.00205303
-0.00104715
0.000527009
-0.0011297
-0.00135439
0.000551055
-0.000249623
0.000237551
0.00115838
0.00252916
0.00254759
0.00273734
0.00426278
0.0058495
0.00804123
0.00973366
0.0142038
0.0189714
-2.87002e-07
-0.000870279
-0.00203766
-0.00104598
0.000504937
-0.00113321
-0.00131883
0.000538577
-0.000231013
0.000227342
0.0011564
0.00253598
0.00252463
0.00274345
0.00425828
0.00584077
0.00804423
0.00968191
0.0142713
0.0183691
-1.83057e-06
-0.000874148
-0.00202081
-0.00104499
0.000482526
-0.00113466
-0.00128857
0.000520093
-0.000207723
0.000217114
0.00115909
0.00254299
0.00249655
0.00275218
0.00425199
0.00583058
0.00804244
0.00962916
0.0142522
0.0178453
-4.41067e-06
-0.000878259
-0.00200107
-0.00104396
0.000459358
-0.00113322
-0.00126068
0.000494957
-0.000179061
0.000206547
0.00116284
0.00254834
0.00246556
0.00276138
0.00424873
0.00581685
0.00804307
0.00956731
0.0142044
0.0173699
-7.93089e-06
-0.000882328
-0.00197844
-0.00104391
0.000436637
-0.00112798
-0.00123443
0.000464585
-0.000145295
0.000194586
0.00116586
0.00255223
0.00243542
0.00277176
0.00424997
0.00580151
0.00804229
0.0095012
0.014124
0.0169215
-1.21535e-05
-0.000886158
-0.00195356
-0.00104491
0.000415795
-0.00111932
-0.00120934
0.000431312
-0.000107496
0.000181824
0.0011678
0.00255625
0.00240828
0.00278308
0.00425604
0.00578486
0.00803744
0.00943375
0.0140058
0.0164916
-1.68102e-05
-0.000889739
-0.00192708
-0.0010466
0.000396998
-0.00110825
-0.00118481
0.000397038
-6.6413e-05
0.000169227
0.00116846
0.00256119
0.00238453
0.00279476
0.00426599
0.0057672
0.008027
0.00936543
0.0138469
0.0160767
-2.16965e-05
-0.000893158
-0.00189948
-0.00104868
0.00037965
-0.00109568
-0.00116039
0.000362919
-2.25566e-05
0.000157323
0.00116764
0.00256706
0.00236407
0.00280608
0.00427838
0.00574933
0.00800897
0.00929542
0.0136484
0.0156735
-2.66934e-05
-0.000896534
-0.00187108
-0.00105094
0.000363037
-0.00108229
-0.00113577
0.000329425
2.34279e-05
0.000146373
0.00116519
0.00257371
0.0023466
0.00281625
0.00429179
0.00573199
0.0079809
0.00922264
0.0134139
0.0152775
-3.17461e-05
-0.000899976
-0.00184203
-0.00105321
0.000346576
-0.00106852
-0.00111077
0.000296552
7.0746e-05
0.000136603
0.00116098
0.00258101
0.00233142
0.00282489
0.00430472
0.00571521
0.007941
0.00914597
0.0131472
0.014883
-3.68283e-05
-0.000903557
-0.00181237
-0.00105537
0.000329885
-0.00105457
-0.00108523
0.000264112
0.000118583
0.000128271
0.00115482
0.00258877
0.00231768
0.002832
0.00431555
0.0056987
0.00788861
0.00906333
0.0128527
0.0144856
-4.19188e-05
-0.000907316
-0.00178214
-0.00105735
0.000312776
-0.00104051
-0.0010591
0.000231946
0.000166191
0.000121684
0.00114639
0.00259683
0.00230469
0.00283758
0.00432302
0.0056822
0.00782381
0.00897125
0.012535
0.0140828
-4.69943e-05
-0.000911269
-0.00175135
-0.00105907
0.000295171
-0.00102632
-0.0010324
0.000200013
0.000212915
0.000117212
0.00113532
0.0026052
0.00229177
0.00284153
0.00432629
0.00566476
0.00774746
0.00886611
0.0121983
0.0136737
-5.20316e-05
-0.000915421
-0.00172005
-0.00106051
0.000277035
-0.00101194
-0.00100523
0.000168392
0.000258194
0.000115251
0.00112119
0.00261398
0.00227839
0.00284383
0.00432497
0.00564447
0.00766108
0.00874533
0.0118454
0.0132586
-5.70113e-05
-0.000919773
-0.00168825
-0.0010616
0.000258339
-0.000997271
-0.000977763
0.000137265
0.00030153
0.000116194
0.00110362
0.00262318
0.00226431
0.00284422
0.00431921
0.00561872
0.00756633
0.00860786
0.011478
0.0128382
-6.19184e-05
-0.000924318
-0.00165603
-0.00106232
0.000239046
-0.000982196
-0.000950224
0.000106888
0.000342387
0.000120457
0.00108223
0.00263276
0.00224958
0.00284213
0.00430968
0.00558447
0.00746436
0.00845389
0.0110965
0.012414
-6.67405e-05
-0.000929045
-0.00162343
-0.00106258
0.000219099
-0.000966575
-0.000922884
7.75873e-05
0.000380203
0.00012842
0.00105674
0.00264256
0.00223436
0.0028366
0.00429781
0.00553886
0.00735473
0.00828548
0.0107006
0.0119866
-7.14704e-05
-0.000933937
-0.00159056
-0.00106231
0.000198414
-0.000950224
-0.000896052
4.96846e-05
0.0004145
0.000140358
0.00102701
0.0026522
0.002219
0.00282593
0.00428581
0.00548035
0.0072354
0.00810636
0.01029
0.0115551
-7.61052e-05
-0.000938962
-0.00155745
-0.00106142
0.000176861
-0.000932934
-0.000870051
2.34791e-05
0.000444825
0.000156414
0.000993164
0.00266114
0.00220439
0.00280804
0.00427488
0.0054089
0.00710343
0.00792017
0.00986623
0.0111184
-8.06458e-05
-0.000944075
-0.00152402
-0.00105977
0.000154271
-0.000914519
-0.000845193
-7.0273e-07
0.000470653
0.000176561
0.000955546
0.00266842
0.00219153
0.00278088
0.00426503
0.00532574
0.0069551
0.0077297
0.00943264
0.010676
-8.50988e-05
-0.000949204
-0.00149085
-0.00105715
0.00013047
-0.000894793
-0.00082178
-2.26322e-05
0.00049157
0.000200654
0.000914765
0.00267248
0.00218162
0.0027429
0.00425511
0.00523377
0.00678619
0.00753635
0.00899447
0.0102145
-8.94844e-05
-0.000954242
-0.00145798
-0.0010534
0.000105277
-0.000873571
-0.000800084
-4.22368e-05
0.000507444
0.000228315
0.00087173
0.00267176
0.00217599
0.00269321
0.00424342
0.0051365
0.00659341
0.00733929
0.00855791
0.00973465
-9.38498e-05
-0.000959047
-0.00142563
-0.00104831
7.85237e-05
-0.000850753
-0.000780338
-5.94657e-05
0.000518288
0.000258699
0.000827837
0.00266491
0.00217533
0.00263154
0.00422765
0.0050374
0.006376
0.00713551
0.00812943
0.00923496
-9.82572e-05
-0.000963437
-0.00139403
-0.00104168
5.00427e-05
-0.000826251
-0.000762717
-7.44373e-05
0.000524343
0.000290584
0.000784457
0.00265056
0.00217969
0.00255836
0.00420843
0.00493954
0.00613521
0.00692006
0.00771612
0.00871773
-0.000102787
-0.000967177
-0.00136346
-0.00103333
1.96895e-05
-0.000800006
-0.000747158
-8.7614e-05
0.000526094
0.000322809
0.000742432
0.0026274
0.00218898
0.00247448
0.00416609
0.00484526
0.00587381
0.00668721
0.00732447
0.00818866
-0.000107572
-0.000969961
-0.00133427
-0.00102312
-1.25892e-05
-0.000772176
-0.000733368
-9.96412e-05
0.000524341
0.00035437
0.000702378
0.00259458
0.00220251
0.00238118
0.00410528
0.00475599
0.00559666
0.00643129
0.00695767
0.00765704
-0.000112768
-0.000971469
-0.00130662
-0.00101099
-4.68067e-05
-0.000743057
-0.000720951
-0.000111367
0.000520218
0.000384356
0.00066465
0.00255175
0.00221871
0.00228021
0.00402294
0.00467176
0.00531064
0.00614638
0.00661387
0.00713607
-0.00011854
-0.000971358
-0.00128085
-0.000996945
-8.28708e-05
-0.00071305
-0.00070929
-0.000123839
0.000514368
0.000412174
0.000629113
0.00249871
0.00223605
0.00217376
0.00391594
0.00459052
0.00502425
0.00582973
0.00628813
0.00664096
-0.000125087
-0.00096924
-0.0012574
-0.000981088
-0.000120417
-0.000682912
-0.000697363
-0.000137864
0.000506859
0.000437525
0.000595095
0.00243522
0.00225319
0.00206402
0.00378196
0.00450818
0.00474633
0.00548449
0.00599031
0.00618472
-0.000132636
-0.000964773
-0.00123572
-0.000963615
-0.000158941
-0.00065361
-0.000684091
-0.000153866
0.000497501
0.000460365
0.000561911
0.00236073
0.00226824
0.00195346
0.00362043
0.00442002
0.00448362
0.00511446
0.00565837
0.00577393
-0.000141399
-0.000957639
-0.00121601
-0.000944916
-0.000197743
-0.00062619
-0.000668817
-0.00017186
0.000485401
0.000480631
0.000529285
0.00227476
0.00227919
0.00184495
0.00343197
0.00432671
0.00424054
0.00472559
0.00530551
0.00540509
-0.000151565
-0.000947554
-0.0011982
-0.000925613
-0.000235829
-0.00060159
-0.000651224
-0.000191257
0.00046926
0.000497865
0.00049684
0.00217691
0.00228367
0.00174116
0.00321833
0.0042089
0.00401831
0.00432598
0.00492403
0.00506412
-0.000163332
-0.000934367
-0.00118187
-0.000906621
-0.000272145
-0.000580272
-0.000631458
-0.000211244
0.000448151
0.000511401
0.000464072
0.00206657
0.00227887
0.00164493
0.00298289
0.00406686
0.00381553
0.0039051
0.00451474
0.00473013
-0.000176827
-0.000918073
-0.00116634
-0.000888963
-0.000306037
-0.00056242
-0.000610195
-0.000231166
0.000421623
0.000520505
0.000430668
0.00194345
0.00226181
0.00155858
0.00273065
0.00389734
0.00363135
0.0035304
0.00408437
0.00438513
-0.000192091
-0.000898861
-0.00115073
-0.000873396
-0.000337411
-0.000547677
-0.000588193
-0.000250632
0.000389506
0.000524285
0.00039625
0.0018077
0.00222989
0.00148386
0.00246735
0.00369728
0.00346054
0.00317465
0.00363918
0.00402062
-0.000209126
-0.000877232
-0.00113393
-0.000860342
-0.000366893
-0.000535409
-0.000565869
-0.000269706
0.0003518
0.000521637
0.000360433
0.00166016
0.00218095
0.00142193
0.0021992
0.00346339
0.00329599
0.00284334
0.00318615
0.00363475
-0.000227783
-0.000853996
-0.00111496
-0.000849567
-0.000395545
-0.000525576
-0.000543544
-0.000288494
0.000307259
0.000511249
0.000323815
0.00150338
0.00211239
0.00137116
0.00193389
0.00319513
0.00312873
0.00254155
0.00273271
0.00322624
-0.00024781
-0.000830017
-0.00109328
-0.000840113
-0.000424236
-0.000519067
-0.000522098
-0.000306915
0.000255712
0.000492276
0.000288067
0.00134098
0.00202206
0.00132721
0.00167805
0.00289507
0.00294848
0.00227173
0.00228887
0.00279377
-0.000268851
-0.000805993
-0.00106875
-0.000830985
-0.000453302
-0.000517455
-0.00050325
-0.00032493
0.000198006
0.000464425
0.000254012
0.00117641
0.00190943
0.00128464
0.00143624
0.00256799
0.00274544
0.00203212
0.0018669
0.00233962
-0.00029041
-0.000782437
-0.00104179
-0.0008216
-0.000482237
-0.000522068
-0.000489457
-0.000342556
0.000136258
0.000427384
0.000221622
0.00101295
0.00177501
0.00123744
0.00121173
0.00222133
0.0025123
0.00181574
0.00147859
0.00187305
-0.000311963
-0.000759674
-0.00101322
-0.000811597
-0.000509826
-0.000533621
-0.000483329
-0.000360549
7.10814e-05
0.000381172
0.000190722
0.000853769
0.00162004
0.00117962
0.00100588
0.00186418
0.00224573
0.00161095
0.00113086
0.00140956
-0.000333124
-0.000737709
-0.000983926
-0.000800904
-0.000534986
-0.000552114
-0.000487063
-0.000381379
2.58426e-06
0.000326514
0.000160433
0.000701695
0.00144758
0.00110647
0.000817616
0.00150526
0.00194634
0.00140526
0.000823446
0.00096514
-0.000353821
-0.000716054
-0.000954587
-0.000789607
-0.00055634
-0.000577558
-0.000504518
-0.000408768
-6.8991e-05
0.000265357
0.000129652
0.000558129
0.00126154
0.00101451
0.000644608
0.00115299
0.00161779
0.00118824
0.000551073
0.00055175
-0.000373871
-0.000694754
-0.000925686
-0.000779195
-0.000573465
-0.0006065
-0.000538674
-0.000445031
-0.000137847
0.000198849
9.54432e-05
0.000422083
0.00106551
0.000901948
0.000483353
0.000814614
0.00126587
0.000951685
0.000304888
0.000176262
-0.00039272
-0.000674351
-0.0008978
-0.000773187
-0.000591804
-0.000637167
-0.000577065
-0.000484217
-0.000205446
0.000125584
5.21034e-05
0.000290045
0.000862565
0.000768921
0.000328997
0.000495043
0.000898639
0.000690155
7.43653e-05
-0.000158277
-0.000410212
-0.000655207
-0.000871535
-0.000773228
-0.000612432
-0.000663678
-0.000616351
-0.000527063
-0.000275178
4.45868e-05
-3.22845e-06
0.000159207
0.000654679
0.000616278
0.000177554
0.000197546
0.000525831
0.000402379
-0.000152187
-0.000454309
-0.00042651
-0.000637602
-0.000847245
-0.000778799
-0.000635565
-0.000686771
-0.000656703
-0.000574959
-0.000348428
-4.41554e-05
-6.9968e-05
2.93026e-05
0.000444033
0.000445425
2.52439e-05
-7.73663e-05
0.000156688
9.17791e-05
-0.000385375
-0.000720007
-0.000441579
-0.000621902
-0.000824713
-0.000788962
-0.000662857
-0.000708307
-0.000696771
-0.000635104
-0.000427086
-0.000139641
-0.000146022
-9.95298e-05
0.00023261
0.00025768
-0.000133232
-0.000332331
-0.000201038
-0.000234628
-0.000631104
-0.00096665
-0.000455416
-0.000608448
-0.000803713
-0.000803156
-0.00069602
-0.000729984
-0.000735111
-0.000693139
-0.000511643
-0.000241591
-0.000230496
-0.000228262
2.1519e-05
5.48138e-05
-0.000302029
-0.000570518
-0.000541155
-0.000569031
-0.00089078
-0.0012054
-0.00046802
-0.000597581
-0.000784575
-0.000820266
-0.000735731
-0.000754833
-0.000769312
-0.000752248
-0.000601726
-0.000351257
-0.000324031
-0.000356931
-0.000187623
-0.000160466
-0.000482922
-0.000796103
-0.000860492
-0.000904415
-0.00116317
-0.00144358
-0.000479382
-0.000589741
-0.000767926
-0.000838944
-0.000782079
-0.00078596
-0.000803997
-0.000810891
-0.000696106
-0.000469566
-0.000428192
-0.000485608
-0.000391787
-0.000384145
-0.000676798
-0.0010151
-0.00115924
-0.00123418
-0.0014451
-0.00168412
-0.000489712
-0.000585432
-0.000754541
-0.000857538
-0.000833924
-0.000825101
-0.00083903
-0.000867946
-0.000792688
-0.000595691
-0.000544277
-0.000616573
-0.000588865
-0.000611244
-0.000882767
-0.0012325
-0.00143985
-0.00155298
-0.00173216
-0.00192797
-0.000499377
-0.000585078
-0.000745148
-0.000874649
-0.000888859
-0.000873992
-0.000878073
-0.000923386
-0.000889065
-0.000728126
-0.000672302
-0.00075228
-0.000779976
-0.000837337
-0.00109729
-0.0014506
-0.00170557
-0.00185827
-0.00202013
-0.00217557
-0.000508829
-0.000588687
-0.000741354
-0.000890215
-0.000944106
-0.000932923
-0.000924905
-0.000978107
-0.00098307
-0.000865031
-0.000811961
-0.000894181
-0.000966884
-0.00106021
-0.00131643
-0.00166987
-0.00195916
-0.00214918
-0.00230509
-0.0024259
-0.000518637
-0.000596127
-0.000743457
-0.00090489
-0.000997533
-0.00100085
-0.000982269
-0.00103469
-0.00107365
-0.0010031
-0.000962055
-0.00104398
-0.00115061
-0.00127904
-0.00153725
-0.00188971
-0.00220297
-0.00242532
-0.0025836
-0.00267657
-0.00052933
-0.000606977
-0.000751869
-0.000920446
-0.00104784
-0.001075
-0.00105159
-0.0010968
-0.00116158
-0.00113844
-0.00111938
-0.00120342
-0.0013333
-0.00149273
-0.00175706
-0.0021087
-0.00243911
-0.00268778
-0.00285339
-0.00292536
-0.000541499
-0.000620617
-0.000766715
-0.000939344
-0.0010949
-0.00115161
-0.00113239
-0.00116803
-0.00124847
-0.00126933
-0.00127945
-0.0013708
-0.00151795
-0.0017016
-0.0019738
-0.00232518
-0.00266801
-0.00293787
-0.003113
-0.00317045
-0.000555738
-0.000636944
-0.000787716
-0.000963307
-0.00113944
-0.00122807
-0.00122318
-0.00125048
-0.00133669
-0.00139562
-0.00143874
-0.00154225
-0.00170533
-0.00190818
-0.00218704
-0.00253792
-0.00288874
-0.00317574
-0.00336154
-0.00341026
-0.000572611
-0.000655964
-0.000814036
-0.000993663
-0.00118343
-0.00130274
-0.0013208
-0.00134454
-0.00142973
-0.00151776
-0.0015951
-0.00171517
-0.00189277
-0.00211307
-0.00239722
-0.00274655
-0.0031014
-0.00340101
-0.00359831
-0.00364321
-0.000592729
-0.00067784
-0.000844631
-0.00103103
-0.00122967
-0.00137526
-0.00142126
-0.00144875
-0.00153095
-0.00163749
-0.00174616
-0.00188734
-0.00207865
-0.00231409
-0.00260409
-0.00295123
-0.00330729
-0.00361414
-0.00382188
-0.00386733
-0.000616547
-0.000703041
-0.000878787
-0.00107509
-0.00128063
-0.00144663
-0.00152173
-0.00156074
-0.00164104
-0.00175826
-0.00189155
-0.00205484
-0.00226197
-0.00251011
-0.00280593
-0.00315118
-0.00350699
-0.00381683
-0.00403145
-0.00408062
-0.000644415
-0.00073212
-0.000916348
-0.00112513
-0.00133757
-0.0015185
-0.00162116
-0.00167744
-0.00175861
-0.00188225
-0.00203332
-0.00221517
-0.00243926
-0.00270027
-0.00300104
-0.00334431
-0.00369911
-0.00401032
-0.00422786
-0.00428163
-0.000676616
-0.00076567
-0.000957467
-0.00118021
-0.00140083
-0.00159306
-0.00171982
-0.00179596
-0.00188199
-0.00200924
-0.00217315
-0.00236966
-0.00260705
-0.00288134
-0.00318799
-0.00352878
-0.00388128
-0.00419351
-0.00441184
-0.00446901
-0.000713329
-0.00080424
-0.00100264
-0.00123933
-0.00147015
-0.00167212
-0.00181854
-0.00191436
-0.00200931
-0.00213907
-0.00231043
-0.00251875
-0.00276549
-0.00304958
-0.0033637
-0.00370283
-0.00405124
-0.00436357
-0.00458249
-0.00464153
-0.000754782
-0.00084817
-0.00105255
-0.00130207
-0.00154485
-0.00175653
-0.00191877
-0.00203245
-0.0021381
-0.00227111
-0.00244503
-0.00266058
-0.00291483
-0.003204
-0.00352397
-0.00386371
-0.00420744
-0.00451834
-0.00473788
-0.00479854
-0.000801254
-0.000897612
-0.00110766
-0.00136895
-0.00162441
-0.00184608
-0.00202169
-0.00215116
-0.00226703
-0.00240322
-0.00257746
-0.0027939
-0.00305221
-0.00334441
-0.00366594
-0.00400701
-0.00434757
-0.00465614
-0.00487681
-0.00493932
-0.00085294
-0.00095255
-0.00116824
-0.00144043
-0.00170882
-0.00194083
-0.00212763
-0.00227076
-0.00239605
-0.00253367
-0.00270676
-0.00291968
-0.00317506
-0.00346794
-0.00378774
-0.00412715
-0.00446605
-0.00477241
-0.0049951
-0.00506105
-0.000910106
-0.00101309
-0.00123464
-0.00151685
-0.00179766
-0.00204081
-0.00223778
-0.00239167
-0.0025252
-0.00266259
-0.00283115
-0.00303765
-0.00328293
-0.00356971
-0.00388565
-0.00421924
-0.00455511
-0.00485975
-0.00508489
-0.00515684
-0.000973066
-0.00107931
-0.00130672
-0.00159857
-0.00189138
-0.00214562
-0.00235279
-0.00251558
-0.00265474
-0.00279093
-0.00295134
-0.00314613
-0.00337596
-0.00364622
-0.00395054
-0.00427511
-0.00460505
-0.004909
-0.00513807
-0.00521898
-0.00104208
-0.00115154
-0.00138451
-0.00168505
-0.00199037
-0.00225635
-0.00247309
-0.00264388
-0.00278626
-0.00291881
-0.00306894
-0.00324599
-0.00345386
-0.00369675
-0.00397335
-0.00427765
-0.00459525
-0.0048989
-0.00513891
-0.00523825
-0.00111735
-0.00123043
-0.00146756
-0.00177648
-0.00209447
-0.00237334
-0.00260082
-0.00277907
-0.00292307
-0.00304816
-0.00318326
-0.00333658
-0.00351524
-0.0037222
-0.00395513
-0.00421823
-0.0045003
-0.0047822
-0.00502554
-0.00515815
-0.00119789
-0.00131365
-0.00155624
-0.00187448
-0.00220478
-0.00249637
-0.0027364
-0.00292589
-0.00307351
-0.00318815
-0.00329856
-0.00341579
-0.00355066
-0.00371311
-0.00389968
-0.00411504
-0.00434954
-0.00457905
-0.00476851
-0.0048642
-0.00128232
-0.00140084
-0.00165206
-0.00197905
-0.00231992
-0.00262455
-0.00287867
-0.00308492
-0.00324893
-0.00336733
-0.00345386
-0.00350337
-0.00351797
-0.00353665
-0.00359469
-0.0037245
-0.0039576
-0.00427668
-0.00461524
-0.00487476
-0.00137257
-0.00149744
-0.00175397
-0.00208635
-0.00243418
-0.00275034
-0.00302152
-0.00325087
-0.00344153
-0.00359314
-0.00373991
-0.00387695
-0.00391398
-0.00377113
-0.00348406
-0.00316987
-0.00290995
-0.00273185
-0.00264959
-0.00269016
-0.00146964
-0.00160384
-0.00186431
-0.00219798
-0.002549
-0.00287067
-0.00315205
-0.00340159
-0.00361422
-0.00375211
-0.0037515
-0.00358903
-0.00336963
-0.00319573
-0.00310324
-0.00306806
-0.00306463
-0.00307032
-0.00308747
-0.0031701
-0.00157265
-0.00170047
-0.00197414
-0.00232423
-0.00270503
-0.00306934
-0.00337404
-0.00356483
-0.00359917
-0.00352923
-0.00344528
-0.00338574
-0.0033478
-0.00330437
-0.0032147
-0.00307093
-0.00286752
-0.00265043
-0.00248915
-0.00246875
-0.00170777
-0.00183645
-0.00204651
-0.00232451
-0.00265344
-0.00297488
-0.00322955
-0.00339385
-0.00347953
-0.00350687
-0.00353159
-0.00357537
-0.0036349
-0.00372782
-0.003831
-0.00389422
-0.00385868
-0.00366824
-0.00333816
-0.00299872
-0.00182366
-0.00198581
-0.00220441
-0.00246538
-0.0027573
-0.00303682
-0.00326193
-0.00341548
-0.00350939
-0.00354149
-0.00352034
-0.0034765
-0.0033957
-0.00327468
-0.00312816
-0.00295568
-0.00277571
-0.00262013
-0.00254243
-0.00261045
-0.00183524
-0.00198936
-0.00226932
-0.00260142
-0.00292594
-0.00318748
-0.00335517
-0.00342324
-0.00343296
-0.00342201
-0.0033955
-0.00337956
-0.00337732
-0.00336582
-0.00334765
-0.00330886
-0.00324328
-0.00316299
-0.0031124
-0.00317433
0.0300195
0.0200909
0.00836948
0.0003865
-0.00247162
-0.00250186
-0.00236906
-0.00279018
-0.00344917
-0.00392185
-0.00411225
-0.0041917
-0.00429906
-0.00450022
-0.00485774
-0.00528982
-0.00560665
-0.00580748
-0.00604176
-0.0063578
-0.0067194
-0.00707522
-0.00737633
-0.00765526
-0.00798921
-0.00838081
-0.0087674
-0.00910305
-0.00939809
-0.0096983
-0.0100211
-0.0103384
-0.0106293
-0.0109157
-0.0112256
-0.0115502
-0.0118677
-0.012191
-0.012544
-0.0129095
-0.0132567
-0.0135946
-0.0139492
-0.0143046
-0.014632
-0.0149595
-0.0153178
-0.0156857
-0.0160517
-0.0164391
-0.0168522
-0.0172535
-0.0176373
-0.0180372
-0.0184385
-0.0188255
-0.019235
-0.0196687
-0.0201022
-0.0205438
-0.0209963
-0.0214461
-0.0218977
-0.0223549
-0.0228221
-0.023299
-0.0237856
-0.0242834
-0.0247933
-0.0253087
-0.0258278
-0.0263527
-0.0268869
-0.0274324
-0.0279913
-0.0285562
-0.0291316
-0.0297155
-0.0303106
-0.0309149
-0.0315285
-0.0321504
-0.0327825
-0.0334259
-0.0340807
-0.034744
-0.0354171
-0.0361005
-0.0367966
-0.0375032
-0.0382218
-0.0389509
-0.0396916
-0.0404461
-0.0412105
-0.0419884
-0.0427903
-0.0435733
-0.0443453
-0.0451496
0.0283463
0.0198889
0.00844988
0.000521703
-0.00238244
-0.00245538
-0.00234106
-0.00277321
-0.00343854
-0.00391442
-0.00410623
-0.00418624
-0.00429372
-0.00449483
-0.0048527
-0.00528559
-0.00560308
-0.00580412
-0.00603856
-0.00635485
-0.00671675
-0.00707291
-0.00737426
-0.00765325
-0.00798728
-0.00837904
-0.00876582
-0.0091016
-0.00939671
-0.00969696
-0.0100198
-0.0103373
-0.0106283
-0.0109147
-0.0112247
-0.0115493
-0.0118669
-0.0121902
-0.0125432
-0.0129088
-0.013256
-0.0135939
-0.0139486
-0.014304
-0.0146315
-0.014959
-0.0153173
-0.0156852
-0.0160513
-0.0164386
-0.0168518
-0.0172531
-0.0176369
-0.0180369
-0.0184382
-0.0188251
-0.0192347
-0.0196684
-0.0201019
-0.0205435
-0.020996
-0.0214458
-0.0218974
-0.0223546
-0.0228218
-0.0232987
-0.0237853
-0.0242832
-0.0247931
-0.0253085
-0.0258276
-0.0263525
-0.0268867
-0.0274322
-0.0279911
-0.0285561
-0.0291314
-0.0297154
-0.0303104
-0.0309148
-0.0315284
-0.0321503
-0.0327823
-0.0334258
-0.0340806
-0.0347439
-0.035417
-0.0361004
-0.0367965
-0.0375031
-0.0382217
-0.0389508
-0.0396915
-0.040446
-0.0412104
-0.0419884
-0.0427903
-0.0435733
-0.0443452
-0.0451495
0.0270689
0.0197692
0.00864253
0.00077264
-0.00224102
-0.00240247
-0.00231147
-0.00274902
-0.00342011
-0.00390134
-0.00409716
-0.00418007
-0.0042892
-0.00449065
-0.00484835
-0.00528145
-0.00559936
-0.00580079
-0.00603559
-0.00635213
-0.00671422
-0.00707067
-0.00737226
-0.00765138
-0.00798556
-0.0083775
-0.00876445
-0.00910034
-0.00939549
-0.00969578
-0.0100187
-0.0103363
-0.0106273
-0.0109138
-0.0112238
-0.0115485
-0.0118662
-0.0121894
-0.0125425
-0.0129082
-0.0132554
-0.0135934
-0.0139481
-0.0143036
-0.014631
-0.0149585
-0.0153168
-0.0156848
-0.0160509
-0.0164382
-0.0168514
-0.0172528
-0.0176366
-0.0180365
-0.0184379
-0.0188249
-0.0192344
-0.0196681
-0.0201017
-0.0205433
-0.0209958
-0.0214456
-0.0218972
-0.0223544
-0.0228216
-0.0232985
-0.0237851
-0.024283
-0.0247929
-0.0253084
-0.0258274
-0.0263524
-0.0268866
-0.0274321
-0.027991
-0.0285559
-0.0291313
-0.0297152
-0.0303103
-0.0309147
-0.0315283
-0.0321502
-0.0327822
-0.0334257
-0.0340805
-0.0347438
-0.0354169
-0.0361003
-0.0367964
-0.037503
-0.0382217
-0.0389508
-0.0396914
-0.0404459
-0.0412104
-0.0419883
-0.0427902
-0.0435732
-0.0443452
-0.0451496
0.0258776
0.0196019
0.0088586
0.00107254
-0.00205817
-0.00233255
-0.00226891
-0.0027102
-0.00338767
-0.0038766
-0.00407999
-0.00416982
-0.00428392
-0.00448725
-0.00484426
-0.00527624
-0.00559418
-0.0057967
-0.00603256
-0.00634933
-0.00671115
-0.00706762
-0.00736959
-0.00764916
-0.00798364
-0.00837575
-0.00876284
-0.0090989
-0.00939419
-0.00969454
-0.0100175
-0.0103351
-0.0106262
-0.0109128
-0.0112229
-0.0115476
-0.0118653
-0.0121886
-0.0125418
-0.0129075
-0.0132548
-0.0135928
-0.0139475
-0.0143031
-0.0146306
-0.014958
-0.0153163
-0.0156843
-0.0160504
-0.0164378
-0.016851
-0.0172524
-0.0176363
-0.0180362
-0.0184376
-0.0188245
-0.019234
-0.0196679
-0.0201014
-0.020543
-0.0209955
-0.0214453
-0.021897
-0.0223542
-0.0228214
-0.0232983
-0.0237849
-0.0242828
-0.0247927
-0.0253082
-0.0258272
-0.0263522
-0.0268864
-0.0274319
-0.0279908
-0.0285558
-0.0291312
-0.0297151
-0.0303102
-0.0309145
-0.0315282
-0.0321501
-0.0327821
-0.0334256
-0.0340804
-0.0347437
-0.0354168
-0.0361002
-0.0367963
-0.0375029
-0.0382216
-0.0389507
-0.0396913
-0.0404459
-0.0412103
-0.0419882
-0.0427901
-0.0435732
-0.0443452
-0.0451497
0.0246765
0.0193535
0.00906648
0.00138576
-0.00185858
-0.00225453
-0.00222005
-0.0026607
-0.00334186
-0.00383889
-0.00405244
-0.00415299
-0.0042761
-0.00448395
-0.00484021
-0.00526939
-0.00558668
-0.00579129
-0.00602941
-0.0063466
-0.0067075
-0.00706335
-0.00736576
-0.00764623
-0.00798123
-0.00837336
-0.00876051
-0.00909694
-0.00939265
-0.00969314
-0.0100161
-0.0103337
-0.0106249
-0.0109115
-0.0112217
-0.0115465
-0.0118643
-0.0121877
-0.0125409
-0.0129067
-0.0132541
-0.0135921
-0.0139469
-0.0143025
-0.01463
-0.0149575
-0.0153158
-0.0156838
-0.0160499
-0.0164374
-0.0168506
-0.017252
-0.0176359
-0.0180358
-0.0184373
-0.0188242
-0.0192337
-0.0196675
-0.0201011
-0.0205427
-0.0209952
-0.0214451
-0.0218967
-0.0223539
-0.0228212
-0.0232981
-0.0237847
-0.0242826
-0.0247925
-0.025308
-0.0258271
-0.0263521
-0.0268863
-0.0274317
-0.0279907
-0.0285556
-0.029131
-0.029715
-0.03031
-0.0309144
-0.0315281
-0.03215
-0.032782
-0.0334255
-0.0340803
-0.0347436
-0.0354167
-0.0361001
-0.0367962
-0.0375028
-0.0382215
-0.0389506
-0.0396912
-0.0404458
-0.0412102
-0.0419881
-0.0427901
-0.0435731
-0.0443452
-0.0451499
0.0234751
0.0190373
0.00926765
0.00170623
-0.00164893
-0.00217308
-0.00217145
-0.00260816
-0.00328937
-0.00379294
-0.00401697
-0.0041302
-0.00426523
-0.00447993
-0.00483565
-0.00526076
-0.00557684
-0.00578446
-0.00602608
-0.00634407
-0.00670347
-0.00705801
-0.00736088
-0.00764268
-0.00797826
-0.00837002
-0.00875699
-0.00909406
-0.00939065
-0.00969149
-0.0100143
-0.0103318
-0.0106233
-0.0109101
-0.0112203
-0.011545
-0.0118629
-0.0121865
-0.0125398
-0.0129057
-0.0132532
-0.0135913
-0.0139461
-0.0143018
-0.0146293
-0.0149568
-0.0153151
-0.0156832
-0.0160494
-0.0164368
-0.0168501
-0.0172516
-0.0176354
-0.0180354
-0.0184369
-0.0188238
-0.0192333
-0.0196672
-0.0201008
-0.0205424
-0.020995
-0.0214448
-0.0218964
-0.0223537
-0.0228209
-0.0232979
-0.0237845
-0.0242823
-0.0247923
-0.0253078
-0.0258269
-0.0263519
-0.0268861
-0.0274316
-0.0279905
-0.0285555
-0.0291309
-0.0297148
-0.0303099
-0.0309143
-0.0315279
-0.0321499
-0.0327819
-0.0334254
-0.0340802
-0.0347435
-0.0354166
-0.0361
-0.0367961
-0.0375027
-0.0382214
-0.0389505
-0.0396911
-0.0404457
-0.0412101
-0.0419881
-0.04279
-0.0435731
-0.0443452
-0.0451502
0.0222928
0.0186668
0.00945942
0.00202992
-0.00143082
-0.00208837
-0.00212443
-0.00255548
-0.003234
-0.00374274
-0.0039769
-0.00410341
-0.00425174
-0.0044747
-0.0048302
-0.00525062
-0.00556526
-0.00577654
-0.0060225
-0.00634162
-0.00669916
-0.00705196
-0.00735539
-0.00763892
-0.00797499
-0.00836574
-0.00875204
-0.00908992
-0.00938791
-0.00968937
-0.0100119
-0.0103294
-0.0106214
-0.0109086
-0.0112186
-0.0115431
-0.0118611
-0.0121849
-0.0125384
-0.0129043
-0.013252
-0.0135903
-0.0139452
-0.0143009
-0.0146285
-0.014956
-0.0153143
-0.0156824
-0.0160487
-0.0164362
-0.0168495
-0.017251
-0.0176349
-0.0180349
-0.0184364
-0.0188233
-0.0192329
-0.0196668
-0.0201004
-0.020542
-0.0209946
-0.0214445
-0.0218961
-0.0223534
-0.0228206
-0.0232976
-0.0237842
-0.0242821
-0.024792
-0.0253076
-0.0258266
-0.0263516
-0.0268858
-0.0274313
-0.0279903
-0.0285553
-0.0291307
-0.0297146
-0.0303097
-0.0309141
-0.0315278
-0.0321497
-0.0327817
-0.0334253
-0.03408
-0.0347433
-0.0354165
-0.0360999
-0.036796
-0.0375026
-0.0382213
-0.0389504
-0.039691
-0.0404456
-0.04121
-0.041988
-0.0427899
-0.0435731
-0.0443452
-0.0451506
0.0211451
0.0182452
0.00963178
0.00235193
-0.00120407
-0.00199837
-0.00207824
-0.00250317
-0.0031768
-0.00368982
-0.00393392
-0.00407385
-0.00423612
-0.00446815
-0.00482382
-0.00523944
-0.0055526
-0.00576794
-0.00601867
-0.00633901
-0.00669451
-0.00704546
-0.00734972
-0.00763539
-0.00797183
-0.00836089
-0.00874587
-0.00908447
-0.00938424
-0.00968658
-0.0100089
-0.0103263
-0.010619
-0.010907
-0.0112169
-0.0115409
-0.011859
-0.012183
-0.0125365
-0.0129024
-0.0132504
-0.013589
-0.013944
-0.0142998
-0.0146275
-0.0149551
-0.0153133
-0.0156814
-0.0160478
-0.0164354
-0.0168488
-0.0172504
-0.0176343
-0.0180343
-0.0184358
-0.0188227
-0.0192323
-0.0196663
-0.0200999
-0.0205416
-0.0209942
-0.0214441
-0.0218957
-0.022353
-0.0228203
-0.0232972
-0.0237839
-0.0242818
-0.0247917
-0.0253073
-0.0258264
-0.0263514
-0.0268856
-0.0274311
-0.0279901
-0.0285551
-0.0291305
-0.0297144
-0.0303095
-0.0309139
-0.0315276
-0.0321495
-0.0327816
-0.0334251
-0.0340799
-0.0347432
-0.0354163
-0.0360998
-0.0367959
-0.0375025
-0.0382212
-0.0389503
-0.0396909
-0.0404455
-0.0412099
-0.0419879
-0.0427898
-0.043573
-0.0443453
-0.0451511
0.0200416
0.0177719
0.00977567
0.0026701
-0.000966505
-0.00190008
-0.00203179
-0.00245169
-0.00311845
-0.0036348
-0.00388865
-0.00404203
-0.0042186
-0.0044604
-0.00481672
-0.00522756
-0.00553922
-0.00575882
-0.00601454
-0.00633615
-0.00668951
-0.00703861
-0.00734401
-0.00763216
-0.00796899
-0.00835587
-0.00873893
-0.00907802
-0.00937969
-0.00968306
-0.0100051
-0.0103226
-0.0106162
-0.0109051
-0.011215
-0.0115387
-0.0118568
-0.012181
-0.0125343
-0.0129001
-0.0132483
-0.0135873
-0.0139425
-0.0142984
-0.0146264
-0.0149542
-0.0153122
-0.0156802
-0.0160467
-0.0164344
-0.0168478
-0.0172495
-0.0176336
-0.0180337
-0.0184351
-0.0188221
-0.0192317
-0.0196656
-0.0200993
-0.0205411
-0.0209938
-0.0214436
-0.0218953
-0.0223526
-0.0228199
-0.0232968
-0.0237835
-0.0242814
-0.0247914
-0.025307
-0.0258261
-0.0263511
-0.0268853
-0.0274308
-0.0279898
-0.0285548
-0.0291302
-0.0297142
-0.0303093
-0.0309137
-0.0315274
-0.0321494
-0.0327814
-0.0334249
-0.0340797
-0.034743
-0.0354162
-0.0360996
-0.0367958
-0.0375024
-0.038221
-0.0389502
-0.0396908
-0.0404454
-0.0412098
-0.0419877
-0.0427897
-0.0435729
-0.0443453
-0.0451516
0.0189871
0.0172495
0.0098864
0.00298412
-0.000716404
-0.0017915
-0.00198486
-0.00240229
-0.00305999
-0.0035781
-0.00384118