/*--------------------------------*- C++ -*----------------------------------*\
| =========                 |                                                 |
| \\      /  F ield         | OpenFOAM: The Open Source CFD Toolbox           |
|  \\    /   O peration     | Version:  3.0.1                                 |
|   \\  /    A nd           | Web:      www.OpenFOAM.org                      |
|    \\/     M anipulation  |                                                 |
\*---------------------------------------------------------------------------*/
FoamFile
{
    version     2.0;
    format      ascii;
    class       surfaceScalarField;
    location    "2.5";
    object      phi;
}
// * * * * * * * * * * * * * * * * * * * * * * * * * * * * * * * * * * * * * //

dimensions      [0 3 -1 0 0 0 0];

internalField   nonuniform List<scalar> 
19000
(
1.17016e-06
2.39596e-07
1.15593e-06
-4.03667e-07
1.18853e-06
8.97957e-09
1.17716e-06
4.00063e-07
1.11825e-06
4.13318e-07
1.12777e-06
-5.29684e-07
1.19256e-06
-9.45456e-08
1.15784e-06
-8.42633e-07
1.18808e-06
2.17403e-07
1.15744e-06
2.45721e-07
1.14389e-06
2.74722e-07
1.14362e-06
5.71886e-07
1.11831e-06
2.4632e-07
1.12415e-06
1.75072e-07
1.12653e-06
-1.14434e-07
1.12191e-06
-1.62531e-07
1.13652e-06
-1.55783e-07
1.11553e-06
-3.87349e-07
1.1371e-06
-6.13438e-08
-4.00182e-07
1.07184e-06
1.22371e-06
2.40145e-07
1.21004e-06
-3.89995e-07
1.24221e-06
-2.31953e-08
1.23584e-06
4.06438e-07
1.17356e-06
4.75599e-07
1.18115e-06
-5.37277e-07
1.24358e-06
-1.56972e-07
1.21057e-06
-8.09624e-07
1.23823e-06
1.89743e-07
1.21744e-06
2.66511e-07
1.19167e-06
3.00494e-07
1.20628e-06
5.57274e-07
1.17226e-06
2.80342e-07
1.18769e-06
1.59638e-07
1.18e-06
-1.06745e-07
1.19025e-06
-1.72778e-07
1.18653e-06
-1.52065e-07
1.18733e-06
-3.88147e-07
1.18182e-06
-5.58379e-08
-3.7762e-07
1.15926e-06
1.27947e-06
2.43459e-07
1.26807e-06
-3.78595e-07
1.2953e-06
-5.04218e-08
1.2967e-06
4.05033e-07
1.23644e-06
5.35857e-07
1.23969e-06
-5.40526e-07
1.29625e-06
-2.13531e-07
1.27081e-06
-7.84183e-07
1.28803e-06
1.72519e-07
1.2813e-06
2.7325e-07
1.24385e-06
3.37938e-07
1.26185e-06
5.39279e-07
1.23448e-06
3.07708e-07
1.24559e-06
1.48531e-07
1.24226e-06
-1.03422e-07
1.24985e-06
-1.80364e-07
1.24987e-06
-1.52086e-07
1.24847e-06
-3.86745e-07
1.25215e-06
-5.95149e-08
-3.53941e-07
1.22847e-06
1.33851e-06
2.49048e-07
1.33062e-06
-3.707e-07
1.3497e-06
-6.95062e-08
1.35791e-06
3.96828e-07
1.3064e-06
5.87363e-07
1.30474e-06
-5.38866e-07
1.35188e-06
-2.60672e-07
1.33728e-06
-7.69586e-07
1.34293e-06
1.66874e-07
1.34509e-06
2.71086e-07
1.30526e-06
3.77769e-07
1.3153e-06
5.29242e-07
1.30366e-06
3.19345e-07
1.30923e-06
1.42961e-07
1.30965e-06
-1.03841e-07
1.31525e-06
-1.85967e-07
1.31593e-06
-1.52764e-07
1.31247e-06
-3.83286e-07
1.31676e-06
-6.37986e-08
-3.28584e-07
1.2914e-06
1.40184e-06
2.55566e-07
1.3972e-06
-3.66058e-07
1.40726e-06
-7.95701e-08
1.41944e-06
3.8465e-07
1.38212e-06
6.24679e-07
1.37561e-06
-5.32351e-07
1.41136e-06
-2.9643e-07
1.40631e-06
-7.64534e-07
1.40456e-06
1.68625e-07
1.40858e-06
2.67066e-07
1.3754e-06
4.10952e-07
1.37726e-06
5.27379e-07
1.377e-06
3.19607e-07
1.38183e-06
1.38128e-07
1.38151e-06
-1.03516e-07
1.38622e-06
-1.90679e-07
1.38577e-06
-1.52317e-07
1.37968e-06
-3.77192e-07
1.38391e-06
-6.80252e-08
-3.0175e-07
1.35707e-06
1.46992e-06
2.61324e-07
1.46715e-06
-3.63292e-07
1.46952e-06
-8.19344e-08
1.48285e-06
3.71316e-07
1.46152e-06
6.46008e-07
1.45098e-06
-5.21809e-07
1.47506e-06
-3.20508e-07
1.47545e-06
-7.64932e-07
1.47135e-06
1.72727e-07
1.47412e-06
2.64297e-07
1.45054e-06
4.34531e-07
1.4494e-06
5.28517e-07
1.45406e-06
3.14951e-07
1.45969e-06
1.32503e-07
1.45764e-06
-1.01466e-07
1.46044e-06
-1.93487e-07
1.45894e-06
-1.50815e-07
1.44967e-06
-3.67923e-07
1.45389e-06
-7.22466e-08
-2.73658e-07
1.4258e-06
1.5425e-06
2.65037e-07
1.54009e-06
-3.60875e-07
1.53722e-06
-7.90645e-08
1.55007e-06
3.58462e-07
1.54271e-06
6.5337e-07
1.5297e-06
-5.08798e-07
1.5431e-06
-3.33911e-07
1.54447e-06
-7.66298e-07
1.54113e-06
1.76066e-07
1.54322e-06
2.62205e-07
1.52842e-06
4.49326e-07
1.52827e-06
5.28667e-07
1.5346e-06
3.08626e-07
1.54029e-06
1.26815e-07
1.53684e-06
-9.80129e-08
1.53736e-06
-1.94008e-07
1.53488e-06
-1.48343e-07
1.52252e-06
-3.55563e-07
1.52649e-06
-7.62183e-08
-2.44793e-07
1.49763e-06
1.61887e-06
2.66299e-07
1.61588e-06
-3.5789e-07
1.61022e-06
-7.34065e-08
1.62218e-06
3.46508e-07
1.62477e-06
6.5078e-07
1.611e-06
-4.95029e-07
1.61556e-06
-3.38471e-07
1.61462e-06
-7.65357e-07
1.61306e-06
1.77626e-07
1.61601e-06
2.59258e-07
1.60859e-06
4.56743e-07
1.61091e-06
5.2635e-07
1.61786e-06
3.01667e-07
1.62292e-06
1.21764e-07
1.61835e-06
-9.34428e-08
1.61677e-06
-1.92437e-07
1.61363e-06
-1.45198e-07
1.59854e-06
-3.40472e-07
1.60209e-06
-7.97728e-08
-2.15726e-07
1.57303e-06
1.69836e-06
2.65512e-07
1.69463e-06
-3.54158e-07
1.68797e-06
-6.67465e-08
1.6992e-06
3.35278e-07
1.70778e-06
6.42195e-07
1.69452e-06
-4.81768e-07
1.69242e-06
-3.36368e-07
1.68762e-06
-7.60562e-07
1.68769e-06
1.77557e-07
1.69221e-06
2.5474e-07
1.69109e-06
4.57867e-07
1.69594e-06
5.21495e-07
1.70324e-06
2.94372e-07
1.70737e-06
1.17627e-07
1.70201e-06
-8.80763e-08
1.69859e-06
-1.89018e-07
1.69521e-06
-1.41824e-07
1.67794e-06
-3.23196e-07
1.68098e-06
-8.28149e-08
-1.87103e-07
1.65236e-06
1.78082e-06
2.63417e-07
1.77656e-06
-3.49906e-07
1.76993e-06
-6.01086e-08
1.78066e-06
3.24546e-07
1.7924e-06
6.30455e-07
1.78024e-06
-4.69606e-07
1.77359e-06
-3.29724e-07
1.7648e-06
-7.51769e-07
1.76603e-06
1.76332e-07
1.77184e-06
2.48931e-07
1.77599e-06
4.53714e-07
1.78295e-06
5.14536e-07
1.7905e-06
2.86815e-07
1.79367e-06
1.14459e-07
1.78793e-06
-8.23299e-08
1.78287e-06
-1.83966e-07
1.77961e-06
-1.38561e-07
1.76081e-06
-3.04397e-07
1.76325e-06
-8.52515e-08
-1.5963e-07
1.73578e-06
1.86651e-06
2.60653e-07
1.862e-06
-3.45397e-07
1.85581e-06
-5.39129e-08
1.86617e-06
3.14187e-07
1.87943e-06
6.17195e-07
1.8684e-06
-4.58575e-07
1.85901e-06
-3.20343e-07
1.84682e-06
-7.39577e-07
1.84884e-06
1.74312e-07
1.85521e-06
2.42562e-07
1.86353e-06
4.45401e-07
1.87198e-06
5.06077e-07
1.87983e-06
2.78965e-07
1.88207e-06
1.12223e-07
1.87636e-06
-7.66151e-08
1.86991e-06
-1.77521e-07
1.8669e-06
-1.35547e-07
1.84727e-06
-2.84767e-07
1.84893e-06
-8.69158e-08
-1.34001e-07
1.8233e-06
1.95592e-06
2.57575e-07
1.95128e-06
-3.40757e-07
1.94556e-06
-4.81951e-08
1.95564e-06
3.04111e-07
1.96964e-06
6.03187e-07
1.95944e-06
-4.4837e-07
1.94868e-06
-3.09588e-07
1.93387e-06
-7.2476e-07
1.93652e-06
1.7166e-07
1.94275e-06
2.36327e-07
1.95412e-06
4.34037e-07
1.96345e-06
4.96747e-07
1.97167e-06
2.70745e-07
1.97305e-06
1.10836e-07
1.96767e-06
-7.12286e-08
1.96013e-06
-1.69984e-07
1.95729e-06
-1.32709e-07
1.93746e-06
-2.6494e-07
1.93812e-06
-8.75692e-08
-1.10787e-07
1.9149e-06
2.04946e-06
2.54299e-07
2.04468e-06
-3.35975e-07
2.0393e-06
-4.28126e-08
2.04921e-06
2.94202e-07
2.06369e-06
5.88703e-07
2.05387e-06
-4.38549e-07
2.04268e-06
-2.98395e-07
2.02588e-06
-7.0796e-07
2.02913e-06
1.68408e-07
2.03475e-06
2.30706e-07
2.04824e-06
4.20546e-07
2.0579e-06
4.87094e-07
2.06658e-06
2.62064e-07
2.06723e-06
1.10183e-07
2.06232e-06
-6.63157e-08
2.05403e-06
-1.61699e-07
2.05113e-06
-1.29803e-07
2.03165e-06
-2.45464e-07
2.03107e-06
-8.69856e-08
-9.03039e-08
2.01058e-06
2.14748e-06
2.50825e-07
2.14248e-06
-3.30976e-07
2.13726e-06
-3.75997e-08
2.14714e-06
2.84329e-07
2.16206e-06
5.73778e-07
2.15219e-06
-4.28677e-07
2.14114e-06
-2.87344e-07
2.12278e-06
-6.89605e-07
2.12666e-06
1.64532e-07
2.13138e-06
2.25984e-07
2.14636e-06
4.05568e-07
2.15593e-06
4.77522e-07
2.16515e-06
2.52844e-07
2.16523e-06
1.101e-07
2.16078e-06
-6.1861e-08
2.15213e-06
-1.53048e-07
2.14878e-06
-1.26456e-07
2.13011e-06
-2.26798e-07
2.12821e-06
-8.5083e-08
-7.25186e-08
2.11043e-06
2.25019e-06
2.47125e-07
2.2449e-06
-3.25687e-07
2.23975e-06
-3.24517e-08
2.24967e-06
2.74407e-07
2.2651e-06
5.58357e-07
2.25482e-06
-4.18407e-07
2.24424e-06
-2.76762e-07
2.22457e-06
-6.69928e-07
2.22912e-06
1.59977e-07
2.23279e-06
2.22318e-07
2.24888e-06
3.89479e-07
2.25814e-06
4.68262e-07
2.26792e-06
2.43064e-07
2.26765e-06
1.10369e-07
2.26348e-06
-5.76926e-08
2.25485e-06
-1.44415e-07
2.25067e-06
-1.22281e-07
2.23311e-06
-2.09241e-07
2.23005e-06
-8.20146e-08
-5.70636e-08
2.21459e-06
2.35782e-06
2.4318e-07
2.35219e-06
-3.20059e-07
2.34709e-06
-2.73467e-08
2.35707e-06
2.64422e-07
2.37306e-06
5.42373e-07
2.36215e-06
-4.07498e-07
2.35221e-06
-2.66822e-07
2.33131e-06
-6.49027e-07
2.33663e-06
1.54655e-07
2.33917e-06
2.19775e-07
2.35619e-06
3.72464e-07
2.36505e-06
4.59397e-07
2.37531e-06
2.32802e-07
2.37496e-06
1.10717e-07
2.37078e-06
-5.351e-08
2.36254e-06
-1.36173e-07
2.35723e-06
-1.16972e-07
2.34089e-06
-1.92901e-07
2.33696e-06
-7.8082e-08
-4.34312e-08
2.32332e-06
2.47059e-06
2.38985e-07
2.4646e-06
-3.14066e-07
2.45958e-06
-2.23305e-08
2.46956e-06
2.5444e-07
2.48617e-06
5.25764e-07
2.47448e-06
-3.95805e-07
2.46527e-06
-2.57617e-07
2.44317e-06
-6.2692e-07
2.44937e-06
1.48456e-07
2.45079e-06
2.18352e-07
2.46863e-06
3.5462e-07
2.47715e-06
4.50885e-07
2.4877e-06
2.22249e-07
2.48759e-06
1.10829e-07
2.48301e-06
-4.8931e-08
2.47546e-06
-1.28625e-07
2.46891e-06
-1.10422e-07
2.45362e-06
-1.77607e-07
2.44921e-06
-7.36772e-08
-3.11733e-08
2.43695e-06
2.58874e-06
2.34539e-07
2.58236e-06
-3.0769e-07
2.57753e-06
-1.74918e-08
2.58739e-06
2.44574e-07
2.60468e-06
5.08478e-07
2.59211e-06
-3.83241e-07
2.58371e-06
-2.49214e-07
2.56038e-06
-6.0359e-07
2.56756e-06
1.4128e-07
2.56792e-06
2.17985e-07
2.58651e-06
3.36036e-07
2.59482e-06
4.42575e-07
2.60535e-06
2.11715e-07
2.60583e-06
1.10347e-07
2.60046e-06
-4.35574e-08
2.59379e-06
-1.21949e-07
2.58616e-06
-1.02796e-07
2.57145e-06
-1.62893e-07
2.56705e-06
-6.92757e-08
-1.99703e-08
2.55584e-06
2.71253e-06
2.29841e-07
2.70575e-06
-3.00912e-07
2.7012e-06
-1.29408e-08
2.71081e-06
2.34961e-07
2.72883e-06
4.90462e-07
2.71533e-06
-3.69748e-07
2.70779e-06
-2.41665e-07
2.68322e-06
-5.79024e-07
2.69143e-06
1.33067e-07
2.69086e-06
2.18558e-07
2.71004e-06
3.16851e-07
2.71839e-06
4.34227e-07
2.72853e-06
2.01576e-07
2.72993e-06
1.08942e-07
2.72345e-06
-3.70727e-08
2.71765e-06
-1.16145e-07
2.70934e-06
-9.44858e-08
2.69465e-06
-1.48211e-07
2.69062e-06
-6.52464e-08
-9.72204e-09
2.68038e-06
2.84223e-06
2.24882e-07
2.83501e-06
-2.93698e-07
2.83087e-06
-8.79789e-09
2.84009e-06
2.25745e-07
2.85889e-06
4.71659e-07
2.84442e-06
-3.55277e-07
2.83777e-06
-2.35013e-07
2.81198e-06
-5.53239e-07
2.82122e-06
1.23829e-07
2.81988e-06
2.19902e-07
2.83945e-06
2.97278e-07
2.84814e-06
4.2554e-07
2.85747e-06
1.9224e-07
2.86008e-06
1.06334e-07
2.85234e-06
-2.93284e-08
2.84718e-06
-1.10992e-07
2.83872e-06
-8.60192e-08
2.82362e-06
-1.33115e-07
2.82009e-06
-6.17127e-08
-5.54286e-10
2.81092e-06
2.97813e-06
2.19652e-07
2.97043e-06
-2.86001e-07
2.96682e-06
-5.1891e-09
2.9755e-06
2.17065e-07
2.99515e-06
4.52009e-07
2.97966e-06
-3.39784e-07
2.97392e-06
-2.29279e-07
2.94699e-06
-5.26302e-07
2.95716e-06
1.13651e-07
2.95527e-06
2.21792e-07
2.97494e-06
2.77614e-07
2.98431e-06
4.16166e-07
2.99247e-06
1.84082e-07
2.99643e-06
1.0237e-07
2.98751e-06
-2.04092e-08
2.98257e-06
-1.06044e-07
2.97453e-06
-7.79798e-08
2.95882e-06
-1.17406e-07
2.95556e-06
-5.8458e-08
7.204e-09
2.9478e-06
3.12052e-06
2.14135e-07
3.11228e-06
-2.77755e-07
3.10933e-06
-2.24356e-09
3.11735e-06
2.09049e-07
3.1379e-06
4.31459e-07
3.12136e-06
-3.23244e-07
3.11653e-06
-2.24447e-07
3.08857e-06
-4.98347e-07
3.09951e-06
1.02707e-07
3.09736e-06
2.23943e-07
3.11676e-06
2.58216e-07
3.12716e-06
4.05772e-07
3.13384e-06
1.77397e-07
3.13917e-06
9.70428e-08
3.12937e-06
-1.06067e-08
3.12403e-06
-1.0071e-07
3.11692e-06
-7.08711e-08
3.10071e-06
-1.01192e-07
3.09726e-06
-5.50068e-08
1.31956e-08
3.09127e-06
3.26973e-06
2.08312e-07
3.26086e-06
-2.68883e-07
3.25871e-06
-9.22915e-11
3.26595e-06
2.0181e-07
3.28743e-06
4.0998e-07
3.26985e-06
-3.05669e-07
3.26586e-06
-2.2045e-07
3.23709e-06
-4.69576e-07
3.24854e-06
9.12482e-08
3.24648e-06
2.26007e-07
3.26521e-06
2.39488e-07
3.27692e-06
3.94063e-07
3.28195e-06
1.72367e-07
3.28848e-06
9.05109e-08
3.27824e-06
-3.66418e-10
3.27193e-06
-9.43969e-08
3.26604e-06
-6.49864e-08
3.24972e-06
-8.48719e-08
3.24548e-06
-5.07678e-08
1.71915e-08
3.24149e-06
3.42608e-06
2.02165e-07
3.41649e-06
-2.59299e-07
3.41527e-06
1.13722e-09
3.42164e-06
1.95439e-07
3.44404e-06
3.87572e-07
3.4255e-06
-2.87122e-07
3.4222e-06
-2.17157e-07
3.3929e-06
-4.40273e-07
3.40455e-06
7.96002e-08
3.40295e-06
2.27603e-07
3.42061e-06
2.21829e-07
3.43383e-06
3.80848e-07
3.43719e-06
1.69008e-07
3.4446e-06
8.3095e-08
3.43444e-06
9.79376e-09
3.42669e-06
-8.66506e-08
3.42205e-06
-6.03459e-08
3.40618e-06
-6.8994e-08
3.4007e-06
-4.52892e-08
1.92853e-08
3.3986e-06
3.5899e-06
1.95677e-07
3.57952e-06
-2.48921e-07
3.57933e-06
1.32986e-09
3.58477e-06
1.89999e-07
3.60806e-06
3.64285e-07
3.58867e-06
-2.67737e-07
3.58588e-06
-2.14364e-07
3.55639e-06
-4.1079e-07
3.56786e-06
6.81338e-08
3.56712e-06
2.28342e-07
3.58337e-06
2.05584e-07
3.59814e-06
3.66079e-07
3.59997e-06
1.67178e-07
3.60782e-06
7.52384e-08
3.59826e-06
1.93555e-08
3.58886e-06
-7.72508e-08
3.58522e-06
-5.67087e-08
3.57036e-06
-5.41331e-08
3.56339e-06
-3.83163e-08
1.98491e-08
3.56283e-06
3.76155e-06
1.88835e-07
3.7503e-06
-2.37676e-07
3.75124e-06
3.9716e-10
3.75573e-06
1.85506e-07
3.77978e-06
3.40231e-07
3.75977e-06
-2.47723e-07
3.75721e-06
-2.11807e-07
3.72796e-06
-3.81541e-07
3.73884e-06
5.72538e-08
3.73932e-06
2.27869e-07
3.75391e-06
1.90994e-07
3.77011e-06
3.49877e-07
3.77069e-06
1.66593e-07
3.77849e-06
6.74405e-08
3.76998e-06
2.78613e-08
3.75893e-06
-6.61982e-08
3.75587e-06
-5.36496e-08
3.74255e-06
-4.08099e-08
3.73409e-06
-2.9852e-08
1.95323e-08
3.7344e-06
3.94139e-06
1.81631e-07
3.92923e-06
-2.25517e-07
3.93134e-06
-1.70742e-09
3.93492e-06
1.81924e-07
3.95956e-06
3.15592e-07
3.9392e-06
-2.27365e-07
3.93656e-06
-2.09165e-07
3.90801e-06
-3.52989e-07
3.9179e-06
4.73617e-08
3.91983e-06
2.25939e-07
3.93269e-06
1.78129e-07
3.95006e-06
3.32515e-07
3.94974e-06
1.66906e-07
3.957e-06
6.01883e-08
3.9499e-06
3.49519e-08
3.93739e-06
-5.36832e-08
3.93437e-06
-5.06348e-08
3.92299e-06
-2.94266e-08
3.91329e-06
-2.01529e-08
1.91621e-08
3.91366e-06
4.12982e-06
1.74062e-07
4.11673e-06
-2.12433e-07
4.12e-06
-4.97463e-09
4.12277e-06
1.79154e-07
4.14774e-06
2.90628e-07
4.12739e-06
-2.07021e-07
4.12429e-06
-2.06068e-07
4.09694e-06
-3.25631e-07
4.10547e-06
3.88235e-08
4.10896e-06
2.22456e-07
4.12019e-06
1.66898e-07
4.13836e-06
3.14342e-07
4.13748e-06
1.67787e-07
4.14379e-06
5.38732e-08
4.1383e-06
4.04432e-08
4.12469e-06
-4.00731e-08
4.12115e-06
-4.70927e-08
4.11197e-06
-2.02462e-08
4.1015e-06
-9.68705e-09
1.95935e-08
4.10107e-06
4.32723e-06
1.66137e-07
4.31325e-06
-1.98453e-07
4.3176e-06
-9.3321e-09
4.31973e-06
1.77028e-07
4.34468e-06
2.65675e-07
4.32476e-06
-1.87099e-07
4.32083e-06
-2.02136e-07
4.29514e-06
-2.99946e-07
4.30208e-06
3.18892e-08
4.30701e-06
2.17522e-07
4.31683e-06
1.5708e-07
4.33545e-06
2.95724e-07
4.33427e-06
1.68962e-07
4.33935e-06
4.87931e-08
4.33551e-06
4.42919e-08
4.32126e-06
-2.58312e-08
4.31673e-06
-4.25541e-08
4.30973e-06
-1.32472e-08
4.29919e-06
8.47263e-10
2.15048e-08
4.29728e-06
4.53403e-06
1.57876e-07
4.51923e-06
-1.83652e-07
4.52454e-06
-1.46415e-08
4.52626e-06
1.75307e-07
4.5508e-06
2.41142e-07
4.53175e-06
-1.68051e-07
4.5266e-06
-1.9699e-07
4.50301e-06
-2.7635e-07
4.50827e-06
2.66238e-08
4.51438e-06
2.11415e-07
4.52304e-06
1.48415e-07
4.54177e-06
2.76993e-07
4.54051e-06
1.70228e-07
4.54418e-06
4.5117e-08
4.54187e-06
4.66057e-08
4.5275e-06
-1.14659e-08
4.52166e-06
-3.67119e-08
4.51652e-06
-8.10969e-09
4.50677e-06
1.05986e-08
2.52061e-08
4.50307e-06
4.75068e-06
1.49311e-07
4.73518e-06
-1.68152e-07
4.74123e-06
-2.06865e-08
4.74286e-06
1.73675e-07
4.7665e-06
2.17499e-07
4.74879e-06
-1.50345e-07
4.74212e-06
-1.90314e-07
4.7208e-06
-2.55029e-07
4.72461e-06
2.28109e-08
4.73152e-06
2.04511e-07
4.73924e-06
1.40693e-07
4.75781e-06
2.58417e-07
4.75662e-06
1.71426e-07
4.75872e-06
4.30105e-08
4.75783e-06
4.75007e-08
4.74381e-06
2.55545e-09
4.73656e-06
-2.94636e-08
4.73275e-06
-4.30454e-09
4.72452e-06
1.8835e-08
3.04844e-08
4.71924e-06
4.97762e-06
1.4049e-07
4.96159e-06
-1.52122e-07
4.96808e-06
-2.71782e-08
4.97001e-06
1.7175e-07
4.99226e-06
1.95246e-07
4.97635e-06
-1.3444e-07
4.96795e-06
-1.81915e-07
4.94872e-06
-2.35797e-07
4.9516e-06
1.99331e-08
4.95892e-06
1.97188e-07
4.96585e-06
1.33761e-07
4.98404e-06
2.40227e-07
4.98302e-06
1.7245e-07
4.98345e-06
4.25828e-08
4.98381e-06
4.71399e-08
4.9706e-06
1.57694e-08
4.96203e-06
-2.08962e-08
4.95893e-06
-1.20538e-09
4.95258e-06
2.51812e-08
3.66239e-08
4.94644e-06
5.21533e-06
1.31475e-07
5.19899e-06
-1.35782e-07
5.20555e-06
-3.37399e-08
5.20822e-06
1.69088e-07
5.22858e-06
1.74879e-07
5.21487e-06
-1.20729e-07
5.20479e-06
-1.71833e-07
5.18718e-06
-2.1819e-07
5.18967e-06
1.74463e-08
5.19714e-06
1.89713e-07
5.20333e-06
1.27571e-07
5.22094e-06
2.22622e-07
5.22018e-06
1.73209e-07
5.21886e-06
4.38997e-08
5.22022e-06
4.57824e-08
5.20832e-06
2.76736e-08
5.19866e-06
-1.12395e-08
5.19571e-06
1.74607e-09
5.19116e-06
2.97242e-08
4.26672e-08
5.18512e-06
5.46432e-06
1.22345e-07
5.44794e-06
-1.19402e-07
5.45411e-06
-3.99126e-08
5.458e-06
1.65203e-07
5.4761e-06
1.56776e-07
5.46469e-06
-1.09316e-07
5.45337e-06
-1.60518e-07
5.4368e-06
-2.01621e-07
5.43922e-06
1.50316e-08
5.44675e-06
1.82182e-07
5.45212e-06
1.22204e-07
5.46892e-06
2.05823e-07
5.46854e-06
1.73586e-07
5.46552e-06
4.69181e-08
5.46758e-06
4.37263e-08
5.45741e-06
3.78379e-08
5.447e-06
-8.30538e-10
5.44378e-06
4.97281e-09
5.44063e-06
3.28745e-08
4.78269e-08
5.43547e-06
5.72511e-06
1.1319e-07
5.709e-06
-1.03293e-07
5.71424e-06
-4.51538e-08
5.7199e-06
1.59551e-07
5.73558e-06
1.4109e-07
5.72612e-06
-9.98549e-08
5.71426e-06
-1.4866e-07
5.6983e-06
-1.8566e-07
5.70068e-06
1.26564e-08
5.70819e-06
1.74674e-07
5.7126e-06
1.1779e-07
5.72836e-06
1.90065e-07
5.72857e-06
1.73375e-07
5.72404e-06
5.14463e-08
5.72647e-06
4.12971e-08
5.71838e-06
4.59243e-08
5.7075e-06
1.00513e-08
5.70384e-06
8.63901e-09
5.70162e-06
3.50876e-08
5.17949e-08
5.69765e-06
5.99828e-06
1.04107e-07
5.98277e-06
-8.77826e-08
5.98648e-06
-4.88733e-08
5.99441e-06
1.51625e-07
6.00788e-06
1.27617e-07
5.99963e-06
-9.1603e-08
5.98783e-06
-1.36854e-07
5.97225e-06
-1.70087e-07
5.97434e-06
1.05732e-08
5.98167e-06
1.67339e-07
5.98494e-06
1.14526e-07
5.99965e-06
1.75355e-07
6.00081e-06
1.72212e-07
5.99515e-06
5.71006e-08
5.99754e-06
3.89074e-08
5.9917e-06
5.17697e-08
5.98073e-06
2.10218e-08
5.97647e-06
1.28935e-08
5.97491e-06
3.66504e-08
5.46593e-08
5.97205e-06
6.28441e-06
9.51888e-08
6.26982e-06
-7.3198e-08
6.27163e-06
-5.06798e-08
6.28177e-06
1.41487e-07
6.29373e-06
1.15655e-07
6.28593e-06
-8.38076e-08
6.27435e-06
-1.25267e-07
6.25893e-06
-1.54674e-07
6.26011e-06
9.39441e-09
6.26695e-06
1.60504e-07
6.26928e-06
1.12194e-07
6.28333e-06
1.61301e-07
6.28595e-06
1.69597e-07
6.27964e-06
6.34093e-08
6.2815e-06
3.70477e-08
6.27787e-06
5.53989e-08
6.26725e-06
3.16397e-08
6.26224e-06
1.79018e-08
6.26118e-06
3.77127e-08
5.66102e-08
6.25923e-06
6.58414e-06
8.65164e-08
6.57079e-06
-5.98507e-08
6.57077e-06
-5.06564e-08
6.58233e-06
1.29933e-07
6.59364e-06
1.04339e-07
6.58594e-06
-7.61071e-08
6.57416e-06
-1.13489e-07
6.55844e-06
-1.38952e-07
6.55855e-06
9.28306e-09
6.56508e-06
1.53973e-07
6.56684e-06
1.10442e-07
6.58039e-06
1.47749e-07
6.58473e-06
1.65258e-07
6.57815e-06
6.99878e-08
6.57903e-06
3.61641e-08
6.57744e-06
5.69925e-08
6.56768e-06
4.13939e-08
6.56182e-06
2.37694e-08
6.56105e-06
3.84814e-08
5.77143e-08
6.55994e-06
6.89815e-06
7.81527e-08
6.88635e-06
-4.80422e-08
6.88482e-06
-4.91258e-08
6.89683e-06
1.17914e-07
6.90796e-06
9.32164e-08
6.90061e-06
-6.87613e-08
6.88817e-06
-1.01048e-07
6.87207e-06
-1.22857e-07
6.87171e-06
9.64919e-09
6.87812e-06
1.47563e-07
6.87921e-06
1.09349e-07
6.89183e-06
1.35132e-07
6.89775e-06
1.59336e-07
6.89131e-06
7.64269e-08
6.89097e-06
3.65067e-08
6.89095e-06
5.70097e-08
6.88258e-06
4.97603e-08
6.87595e-06
3.04072e-08
6.87511e-06
3.93205e-08
5.7949e-08
6.87487e-06
7.22715e-06
7.01418e-08
7.21708e-06
-3.79773e-08
7.21445e-06
-4.64933e-08
7.22618e-06
1.06181e-07
7.23709e-06
8.23142e-08
7.23063e-06
-6.23019e-08
7.21761e-06
-8.8034e-08
7.20141e-06
-1.06653e-07
7.20054e-06
1.05183e-08
7.20671e-06
1.41392e-07
7.20713e-06
1.08929e-07
7.21845e-06
1.23817e-07
7.22567e-06
1.52115e-07
7.21977e-06
8.23241e-08
7.21807e-06
3.82012e-08
7.21912e-06
5.59627e-08
7.21251e-06
5.63698e-08
7.20541e-06
3.75121e-08
7.20411e-06
4.06212e-08
5.74193e-08
7.20464e-06
7.57186e-06
6.25119e-08
7.56349e-06
-2.96066e-08
7.56035e-06
-4.33539e-08
7.57128e-06
9.52473e-08
7.58161e-06
7.198e-08
7.57657e-06
-5.72573e-08
7.56358e-06
-7.50457e-08
7.54722e-06
-9.02945e-08
7.54549e-06
1.22474e-08
7.55129e-06
1.35593e-07
7.55121e-06
1.09014e-07
7.56099e-06
1.14036e-07
7.56915e-06
1.43948e-07
7.56416e-06
8.73216e-08
7.5612e-06
4.11549e-08
7.56271e-06
5.4452e-08
7.558e-06
6.10832e-08
7.55093e-06
4.45863e-08
7.54889e-06
4.2659e-08
5.64304e-08
7.54988e-06
7.93304e-06
5.52782e-08
7.92604e-06
-2.26035e-08
7.92317e-06
-4.04832e-08
7.93296e-06
8.54576e-08
7.94253e-06
6.24083e-08
7.93881e-06
-5.35312e-08
7.92715e-06
-6.33932e-08
7.9105e-06
-7.36363e-08
7.90695e-06
1.57955e-08
7.91238e-06
1.30165e-07
7.91214e-06
1.09247e-07
7.9203e-06
1.05877e-07
7.92898e-06
1.3527e-07
7.92511e-06
9.11939e-08
7.92117e-06
4.5094e-08
7.92263e-06
5.29902e-08
7.91971e-06
6.4005e-08
7.91318e-06
5.11113e-08
7.91039e-06
4.54526e-08
5.54201e-08
7.9114e-06
8.31151e-06
4.84543e-08
8.30546e-06
-1.65622e-08
8.30334e-06
-3.83591e-08
8.31197e-06
7.68296e-08
8.32083e-06
5.35444e-08
8.31773e-06
-5.04273e-08
8.30797e-06
-5.36397e-08
8.29067e-06
-5.63326e-08
8.28515e-06
2.13138e-08
8.29072e-06
1.24601e-07
8.29071e-06
1.0925e-07
8.29726e-06
9.93302e-08
8.30595e-06
1.26576e-07
8.30333e-06
9.38145e-08
8.29876e-06
4.96689e-08
8.2998e-06
5.1947e-08
8.29842e-06
6.53916e-08
8.29281e-06
5.67176e-08
8.28947e-06
4.87921e-08
5.47602e-08
8.29013e-06
8.70804e-06
4.20792e-08
8.70295e-06
-1.1475e-08
8.70095e-06
-3.63612e-08
8.70887e-06
6.89071e-08
8.71649e-06
4.59264e-08
8.71364e-06
-4.75756e-08
8.70286e-06
-4.28611e-08
8.68497e-06
-3.84403e-08
8.68079e-06
2.54927e-08
8.6872e-06
1.18188e-07
8.68771e-06
1.08748e-07
8.69267e-06
9.43628e-08
8.70098e-06
1.18267e-07
8.69961e-06
9.51898e-08
8.69477e-06
5.45028e-08
8.69516e-06
5.15653e-08
8.69497e-06
6.55773e-08
8.69052e-06
6.11654e-08
8.68695e-06
5.23638e-08
5.46485e-08
8.68706e-06
9.1235e-06
3.61973e-08
9.11957e-06
-7.54197e-09
9.11674e-06
-3.35328e-08
9.12387e-06
6.17723e-08
9.12454e-06
4.52561e-08
9.1173e-06
-4.0329e-08
9.10938e-06
-3.49395e-08
9.09787e-06
-2.69312e-08
9.0957e-06
2.76648e-08
9.10273e-06
1.11157e-07
9.10387e-06
1.07601e-07
9.10743e-06
9.08073e-08
9.11503e-06
1.10661e-07
9.1148e-06
9.54225e-08
9.11004e-06
5.92681e-08
9.10963e-06
5.19692e-08
9.11028e-06
6.4932e-08
9.10709e-06
6.4349e-08
9.10361e-06
5.58437e-08
5.51023e-08
9.10316e-06
9.55882e-06
3.08401e-08
9.55566e-06
-4.38195e-09
9.55216e-06
-3.00308e-08
9.5582e-06
5.57322e-08
9.55797e-06
4.548e-08
9.55033e-06
-3.26853e-08
9.54355e-06
-2.81623e-08
9.53336e-06
-1.67448e-08
9.53095e-06
3.00806e-08
9.53798e-06
1.04124e-07
9.53978e-06
1.05807e-07
9.54236e-06
8.82213e-08
9.54909e-06
1.03936e-07
9.5498e-06
9.47047e-08
9.54542e-06
6.36478e-08
9.54428e-06
5.3108e-08
9.54536e-06
6.38547e-08
9.54345e-06
6.62653e-08
9.54035e-06
5.89365e-08
5.59989e-08
9.53946e-06
1.00149e-05
2.6038e-08
1.00122e-05
-1.62899e-09
1.00084e-05
-2.62719e-08
1.00143e-05
4.98461e-08
1.00143e-05
4.54599e-08
1.00059e-05
-2.42578e-08
9.99925e-06
-2.1504e-08
9.99028e-06
-7.78333e-09
9.98748e-06
3.28895e-08
9.99396e-06
9.76343e-08
9.99634e-06
1.03432e-07
9.99831e-06
8.62501e-08
1.00042e-05
9.8038e-08
1.00056e-05
9.3311e-08
1.00018e-05
6.74312e-08
1.00001e-05
5.48214e-08
1.00012e-05
6.27115e-08
1.00005e-05
6.70517e-08
9.998e-06
6.13959e-08
5.71225e-08
9.99688e-06
1.04928e-05
2.18369e-08
1.04906e-05
5.94784e-10
1.04866e-05
-2.22197e-08
1.04926e-05
4.38249e-08
1.04927e-05
4.5319e-08
1.04837e-05
-1.52423e-08
1.04769e-05
-1.46927e-08
1.04691e-05
1.11248e-11
1.04662e-05
3.58004e-08
1.04719e-05
9.19744e-08
1.04746e-05
1.00686e-07
1.04762e-05
8.46305e-08
1.04813e-05
9.29448e-08
1.04832e-05
9.13805e-08
1.04802e-05
7.05006e-08
1.04781e-05
5.69152e-08
1.0479e-05
6.17426e-08
1.04792e-05
6.69429e-08
1.04775e-05
6.30862e-08
5.82181e-08
1.04764e-05
1.09936e-05
1.82672e-08
1.09919e-05
2.24578e-09
1.09877e-05
-1.79576e-08
1.09935e-05
3.8049e-08
1.0994e-05
4.48011e-08
1.09847e-05
-6.00422e-09
1.09776e-05
-7.52743e-09
1.09707e-05
6.85647e-09
1.0968e-05
3.85385e-08
1.09728e-05
8.71316e-08
1.09757e-05
9.78336e-08
1.09771e-05
8.32321e-08
1.09814e-05
8.85884e-08
1.09838e-05
8.90109e-08
1.09815e-05
7.27884e-08
1.09792e-05
5.91789e-08
1.09799e-05
6.10988e-08
1.09806e-05
6.62037e-08
1.09797e-05
6.40183e-08
5.90603e-08
1.09789e-05
1.15183e-05
1.53458e-08
1.15173e-05
3.2739e-09
1.15127e-05
-1.33991e-08
1.15178e-05
3.29354e-08
1.1519e-05
4.36395e-08
1.151e-05
3.00679e-09
1.15024e-05
5.91821e-11
1.14962e-05
1.30301e-08
1.14938e-05
4.09491e-08
1.1498e-05
8.29553e-08
1.15008e-05
9.50002e-08
1.1502e-05
8.20494e-08
1.15057e-05
8.48965e-08
1.15083e-05
8.63639e-08
1.15069e-05
7.42277e-08
1.15047e-05
6.14013e-08
1.15049e-05
6.08369e-08
1.15061e-05
6.50719e-08
1.15058e-05
6.42755e-08
5.95251e-08
1.15053e-05
1.20681e-05
1.30808e-08
1.20676e-05
3.78829e-09
1.20628e-05
-8.58181e-09
1.20668e-05
2.89119e-08
1.20687e-05
4.17275e-08
1.20604e-05
1.12507e-08
1.20526e-05
7.94986e-09
1.20467e-05
1.8836e-08
1.20447e-05
4.30092e-08
1.20484e-05
7.92737e-08
1.20511e-05
9.2223e-08
1.20521e-05
8.1065e-08
1.20552e-05
8.18077e-08
1.2058e-05
8.36243e-08
1.20573e-05
7.48509e-08
1.20554e-05
6.33301e-08
1.20553e-05
6.09277e-08
1.20566e-05
6.37726e-08
1.2057e-05
6.39367e-08
5.96072e-08
1.20569e-05
1.26442e-05
1.14518e-08
1.2644e-05
4.05053e-09
1.26389e-05
-3.55621e-09
1.26416e-05
2.6251e-08
1.26442e-05
3.90971e-08
1.26373e-05
1.82191e-08
1.26293e-05
1.58797e-08
1.26237e-05
2.45047e-08
1.26218e-05
4.48416e-08
1.26252e-05
7.59248e-08
1.26279e-05
8.9488e-08
1.26288e-05
8.02237e-08
1.26313e-05
7.92943e-08
1.2634e-05
8.09241e-08
1.26341e-05
7.47599e-08
1.26326e-05
6.47757e-08
1.26323e-05
6.12355e-08
1.26336e-05
6.2506e-08
1.26344e-05
6.30902e-08
5.93376e-08
1.26347e-05
1.3248e-05
1.04016e-08
1.32477e-05
4.37978e-09
1.32427e-05
1.39757e-09
1.32439e-05
2.50586e-08
1.32469e-05
3.61186e-08
1.32416e-05
2.3538e-08
1.32339e-05
2.35166e-08
1.32283e-05
3.01557e-08
1.32265e-05
4.66252e-08
1.32295e-05
7.28595e-08
1.32323e-05
8.67206e-08
1.32331e-05
7.94372e-08
1.32351e-05
7.73199e-08
1.32376e-05
7.83614e-08
1.32383e-05
7.40901e-08
1.32374e-05
6.56567e-08
1.32371e-05
6.15701e-08
1.32382e-05
6.1383e-08
1.32394e-05
6.18914e-08
5.87271e-08
1.324e-05
1.38807e-05
9.81818e-09
1.38803e-05
4.80794e-09
1.38757e-05
5.9676e-09
1.38755e-05
2.52916e-08
1.38782e-05
3.34498e-08
1.38745e-05
2.72263e-08
1.38676e-05
3.04089e-08
1.38619e-05
3.58261e-08
1.386e-05
4.85539e-08
1.38628e-05
7.00958e-08
1.38656e-05
8.38626e-08
1.38665e-05
7.86027e-08
1.3868e-05
7.57676e-08
1.38703e-05
7.60345e-08
1.38714e-05
7.30182e-08
1.38711e-05
6.59565e-08
1.38709e-05
6.17636e-08
1.38719e-05
6.03819e-08
1.38733e-05
6.05025e-08
5.77926e-08
1.38742e-05
1.45439e-05
9.57953e-09
1.45431e-05
5.57615e-09
1.45393e-05
9.76768e-09
1.4538e-05
2.65971e-08
1.45398e-05
3.17142e-08
1.45374e-05
2.95695e-08
1.45316e-05
3.62054e-08
1.45261e-05
4.13705e-08
1.45239e-05
5.07705e-08
1.45262e-05
6.772e-08
1.45292e-05
8.09363e-08
1.45302e-05
7.7609e-08
1.45314e-05
7.4507e-08
1.45335e-05
7.39435e-08
1.45348e-05
7.17311e-08
1.4535e-05
6.57276e-08
1.45351e-05
6.16967e-08
1.4536e-05
5.94364e-08
1.45375e-05
5.90157e-08
5.65963e-08
1.45387e-05
1.52389e-05
9.55251e-09
1.52378e-05
6.64211e-09
1.52349e-05
1.27435e-08
1.52328e-05
2.86211e-08
1.52333e-05
3.12613e-08
1.52318e-05
3.10786e-08
1.52273e-05
4.07195e-08
1.52221e-05
4.65325e-08
1.52196e-05
5.32761e-08
1.52214e-05
6.58872e-08
1.52244e-05
7.8023e-08
1.52256e-05
7.63499e-08
1.52267e-05
7.3427e-08
1.52286e-05
7.20466e-08
1.523e-05
7.03301e-08
1.52306e-05
6.51066e-08
1.5231e-05
6.13019e-08
1.5232e-05
5.84843e-08
1.52335e-05
5.74619e-08
5.51931e-08
1.52349e-05
1.59673e-05
9.6245e-09
1.59659e-05
7.99856e-09
1.59637e-05
1.49891e-08
1.59613e-05
3.09381e-08
1.59605e-05
3.21513e-08
1.59592e-05
3.23261e-08
1.59559e-05
4.39737e-08
1.59515e-05
5.10077e-08
1.59488e-05
5.59957e-08
1.59499e-05
6.46991e-08
1.59527e-05
7.52355e-08
1.59543e-05
7.48173e-08
1.59553e-05
7.23678e-08
1.5957e-05
7.03441e-08
1.59585e-05
6.88276e-08
1.59594e-05
6.42057e-08
1.59601e-05
6.05899e-08
1.59612e-05
5.74455e-08
1.59628e-05
5.58796e-08
5.36082e-08
1.59643e-05
1.67305e-05
9.72853e-09
1.67288e-05
9.74135e-09
1.67271e-05
1.66361e-08
1.67249e-05
3.31206e-08
1.67229e-05
3.41458e-08
1.67214e-05
3.38728e-08
1.67192e-05
4.61583e-08
1.67157e-05
5.4543e-08
1.67129e-05
5.87797e-08
1.67134e-05
6.41515e-08
1.67159e-05
7.27207e-08
1.67177e-05
7.31023e-08
1.67188e-05
7.11839e-08
1.67204e-05
6.87893e-08
1.6722e-05
6.72627e-08
1.67231e-05
6.30585e-08
1.67241e-05
5.96272e-08
1.67253e-05
5.62554e-08
1.67269e-05
5.42843e-08
5.18773e-08
1.67286e-05
1.75303e-05
9.82248e-09
1.75283e-05
1.17174e-08
1.75269e-05
1.80035e-08
1.75251e-05
3.49323e-08
1.75224e-05
3.69042e-08
1.75202e-05
3.59948e-08
1.75187e-05
4.76705e-08
1.75162e-05
5.70804e-08
1.75136e-05
6.13493e-08
1.75136e-05
6.417e-08
1.75157e-05
7.06352e-08
1.75175e-05
7.12627e-08
1.75188e-05
6.98595e-08
1.75204e-05
6.72494e-08
1.7522e-05
6.56858e-08
1.75233e-05
6.17093e-08
1.75245e-05
5.84479e-08
1.75258e-05
5.49234e-08
1.75275e-05
5.26333e-08
5.00602e-08
1.75293e-05
1.83683e-05
9.90931e-09
1.83661e-05
1.38456e-08
1.83648e-05
1.93172e-08
1.83634e-05
3.63105e-08
1.83604e-05
3.99727e-08
1.83576e-05
3.87404e-08
1.83563e-05
4.89519e-08
1.83547e-05
5.87421e-08
1.83526e-05
6.34351e-08
1.83522e-05
6.4606e-08
1.83537e-05
6.90491e-08
1.83556e-05
6.94118e-08
1.8357e-05
6.84324e-08
1.83586e-05
6.5647e-08
1.83603e-05
6.40521e-08
1.83617e-05
6.02347e-08
1.83631e-05
5.70443e-08
1.83646e-05
5.34749e-08
1.83663e-05
5.08999e-08
4.81728e-08
1.83682e-05
1.92463e-05
1.00179e-08
1.92442e-05
1.59774e-08
1.92427e-05
2.08065e-08
1.92417e-05
3.73088e-08
1.92387e-05
4.29585e-08
1.92354e-05
4.19764e-08
1.9234e-05
5.03724e-08