/*--------------------------------*- C++ -*----------------------------------*\
| =========                 |                                                 |
| \\      /  F ield         | OpenFOAM: The Open Source CFD Toolbox           |
|  \\    /   O peration     | Version:  3.0.1                                 |
|   \\  /    A nd           | Web:      www.OpenFOAM.org                      |
|    \\/     M anipulation  |                                                 |
\*---------------------------------------------------------------------------*/
FoamFile
{
    version     2.0;
    format      ascii;
    class       volVectorField;
    location    "2.5";
    object      U;
}
// * * * * * * * * * * * * * * * * * * * * * * * * * * * * * * * * * * * * * //

dimensions      [0 1 -1 0 0 0 0];

internalField   nonuniform List<vector> 
9600
(
(0.872976 0.00242275 0)
(1.11914 -0.00452744 0)
(0.869505 0.000390426 0)
(1.15394 0.00512013 0)
(0.874103 0.00520148 0)
(1.03048 -0.00805111 0)
(0.906674 -0.000667068 0)
(1.12657 -0.0157543 0)
(0.864461 0.00471151 0)
(1.158 0.00484743 0)
(0.838608 0.0061154 0)
(1.10491 0.01459 0)
(0.861777 0.00630559 0)
(1.04634 0.00542335 0)
(0.883481 -0.00376849 0)
(1.03982 -0.00582907 0)
(0.884422 -0.00578535 0)
(1.05398 -0.0167123 0)
(0.859514 -0.00239564 0)
(1.075 -0.0206312 0)
(0.881308 0.00240751 0)
(1.10793 -0.00433545 0)
(0.877977 -8.04903e-05 0)
(1.1408 0.00517325 0)
(0.889949 0.00624561 0)
(1.01918 -0.00814938 0)
(0.915842 -0.0021442 0)
(1.10921 -0.0150037 0)
(0.876299 0.00406815 0)
(1.13604 0.00549898 0)
(0.865024 0.0066928 0)
(1.07215 0.0144263 0)
(0.904746 0.00731231 0)
(1.00682 0.00511426 0)
(0.935679 -0.00361744 0)
(0.990786 -0.00597498 0)
(0.953273 -0.00589289 0)
(0.983406 -0.016772 0)
(0.956386 -0.0020781 0)
(0.970009 -0.0223256 0)
(0.89742 0.00242381 0)
(1.089 -0.00418857 0)
(0.895656 -0.000483828 0)
(1.11516 0.00528184 0)
(0.916168 0.00718717 0)
(1.00515 -0.00831015 0)
(0.931977 -0.00318661 0)
(1.08422 -0.0144156 0)
(0.902798 0.0034817 0)
(1.09759 0.00589574 0)
(0.90899 0.00746995 0)
(1.02442 0.0140135 0)
(0.945429 0.00826442 0)
(0.978893 0.00461566 0)
(0.962812 -0.00343355 0)
(0.974755 -0.00633353 0)
(0.971966 -0.00600446 0)
(0.975911 -0.0162997 0)
(0.970991 -0.00307494 0)
(0.976283 -0.0181642 0)
(0.918657 0.00247004 0)
(1.06643 -0.00409074 0)
(0.919158 -0.000747018 0)
(1.08287 0.00523082 0)
(0.944705 0.00795957 0)
(0.994353 -0.00832242 0)
(0.950298 -0.00402082 0)
(1.0583 -0.0140898 0)
(0.934811 0.00327931 0)
(1.05857 0.00589536 0)
(0.948675 0.0084032 0)
(0.990559 0.0135965 0)
(0.966683 0.0087618 0)
(0.9741 0.00438417 0)
(0.972878 -0.00341822 0)
(0.977032 -0.00660076 0)
(0.977924 -0.00592138 0)
(0.979222 -0.0164164 0)
(0.975151 -0.00295017 0)
(0.978501 -0.016812 0)
(0.941242 0.0025336 0)
(1.04475 -0.00402538 0)
(0.943148 -0.000908897 0)
(1.05137 0.00507667 0)
(0.969015 0.00859199 0)
(0.990043 -0.00823952 0)
(0.965969 -0.0047086 0)
(1.03681 -0.0139477 0)
(0.961553 0.00329579 0)
(1.0304 0.00577675 0)
(0.973659 0.0092996 0)
(0.977964 0.0134492 0)
(0.97696 0.00889998 0)
(0.97987 0.00425215 0)
(0.981064 -0.00341944 0)
(0.982139 -0.00677968 0)
(0.984336 -0.00593059 0)
(0.982455 -0.0162213 0)
(0.97931 -0.00304724 0)
(0.979895 -0.015683 0)
(0.961578 0.00259885 0)
(1.02742 -0.00398813 0)
(0.963215 -0.00097504 0)
(1.02643 0.00490221 0)
(0.98612 0.00901254 0)
(0.991624 -0.00809517 0)
(0.977155 -0.00520597 0)
(1.02151 -0.0139213 0)
(0.978189 0.00338039 0)
(1.01451 0.00570377 0)
(0.98615 0.00997944 0)
(0.978507 0.0134802 0)
(0.984631 0.00882996 0)
(0.987596 0.00408998 0)
(0.989207 -0.0033619 0)
(0.987704 -0.00692456 0)
(0.989761 -0.0058975 0)
(0.986073 -0.0158546 0)
(0.982285 -0.0032637 0)
(0.981838 -0.0143781 0)
(0.977384 0.00264892 0)
(1.01574 -0.0039624 0)
(0.977459 -0.000963231 0)
(1.01019 0.004731 0)
(0.996449 0.00920833 0)
(0.996161 -0.00790326 0)
(0.984732 -0.0055087 0)
(1.01135 -0.0139427 0)
(0.985766 0.00346753 0)
(1.00668 0.00566972 0)
(0.991898 0.010421 0)
(0.983615 0.013518 0)
(0.991828 0.00867232 0)
(0.994781 0.0039148 0)
(0.996018 -0.00326608 0)
(0.993091 -0.00698268 0)
(0.993926 -0.00581456 0)
(0.989499 -0.0153721 0)
(0.984516 -0.00349193 0)
(0.983554 -0.0129473 0)
(0.988113 0.00267432 0)
(1.00895 -0.00393296 0)
(0.986315 -0.000906289 0)
(1.00149 0.00456909 0)
(1.00204 0.00922937 0)
(1.00086 -0.00768907 0)
(0.990236 -0.00564777 0)
(1.00458 -0.0139476 0)
(0.987786 0.00352316 0)
(1.00256 0.00562451 0)
(0.994795 0.0106711 0)
(0.989143 0.0134908 0)
(0.998121 0.00848946 0)
(1.00078 0.00374871 0)
(1.00122 -0.00313501 0)
(0.997565 -0.00694827 0)
(0.997233 -0.00570705 0)
(0.992394 -0.0147826 0)
(0.986507 -0.00368185 0)
(0.985008 -0.0114634 0)
(0.994561 0.00267563 0)
(1.00536 -0.00389519 0)
(0.991357 -0.000830513 0)
(0.997723 0.00441787 0)
(1.00487 0.00913888 0)
(1.0043 -0.00747962 0)
(0.994568 -0.00565806 0)
(1 -0.0138911 0)
(0.987461 0.00353907 0)
(0.999813 0.00554441 0)
(0.996429 0.010763 0)
(0.993742 0.013395 0)
(1.00304 0.00829451 0)
(1.00531 0.00360325 0)
(1.00498 -0.00296615 0)
(1.00088 -0.00684524 0)
(0.99976 -0.00559433 0)
(0.994737 -0.0140776 0)
(0.988335 -0.00383272 0)
(0.986365 -0.01 0)
(0.998066 0.00265961 0)
(1.00347 -0.00385073 0)
(0.994157 -0.000751022 0)
(0.996501 0.00427487 0)
(1.00621 0.00898667 0)
(1.00628 -0.00728775 0)
(0.997963 -0.00557502 0)
(0.996974 -0.0137606 0)
(0.986691 0.00352323 0)
(0.997715 0.00542939 0)
(0.997302 0.0107198 0)
(0.997081 0.0132393 0)
(1.00647 0.00808806 0)
(1.00837 0.0034891 0)
(1.00745 -0.002777 0)
(1.00311 -0.00668629 0)
(1.00151 -0.00547805 0)
(0.996527 -0.0132837 0)
(0.989942 -0.00395851 0)
(0.987646 -0.00859904 0)
(0.999842 0.00263407 0)
(1.00237 -0.00380264 0)
(0.995757 -0.000675338 0)
(0.996316 0.00413746 0)
(1.00676 0.0088039 0)
(1.00716 -0.00711375 0)
(1.00043 -0.00543405 0)
(0.995144 -0.0135651 0)
(0.986213 0.00348651 0)
(0.996194 0.00529237 0)
(0.997671 0.0105663 0)
(0.99921 0.0130337 0)
(1.00857 0.00787242 0)
(1.01014 0.00341034 0)
(1.00885 -0.00259432 0)
(1.00444 -0.00646993 0)
(1.00257 -0.00536205 0)
(0.997778 -0.0124473 0)
(0.991274 -0.00405815 0)
(0.988795 -0.00728341 0)
(1.00071 0.00260422 0)
(1.0017 -0.00375275 0)
(0.9967 -0.000605294 0)
(0.996433 0.00400425 0)
(1.00689 0.00860818 0)
(1.0074 -0.00695515 0)
(1.00204 -0.00526143 0)
(0.994218 -0.0133171 0)
(0.986122 0.00343586 0)
(0.995245 0.005152 0)
(0.997767 0.0103282 0)
(1.00035 0.012797 0)
(1.00961 0.00764803 0)
(1.01092 0.00336017 0)
(1.00945 -0.00242441 0)
(1.00509 -0.00620365 0)
(1.0031 -0.00526071 0)
(0.998569 -0.0115999 0)
(0.992316 -0.00410861 0)
(0.989765 -0.00608052 0)
(1.00111 0.00257221 0)
(1.00132 -0.00370135 0)
(0.997245 -0.000540012 0)
(0.996574 0.00387444 0)
(1.00684 0.00840598 0)
(1.00734 -0.00680553 0)
(1.00296 -0.00507487 0)
(0.993915 -0.0130293 0)
(0.986299 0.00337426 0)
(0.994757 0.00502192 0)
(0.997755 0.0100305 0)
(1.00079 0.0125474 0)
(1.00993 0.00741179 0)
(1.01103 0.00333334 0)
(1.00952 -0.00226401 0)
(1.00529 -0.00590702 0)
(1.00327 -0.00516531 0)
(0.999021 -0.010769 0)
(0.993105 -0.00408999 0)
(0.990547 -0.00500772 0)
(1.00129 0.0025384 0)
(1.00114 -0.00364797 0)
(0.997543 -0.000477423 0)
(0.996667 0.00374631 0)
(1.00674 0.0081981 0)
(1.00715 -0.00665711 0)
(1.0034 -0.00488716 0)
(0.993981 -0.0127103 0)
(0.986617 0.00330222 0)
(0.994556 0.00491009 0)
(0.997723 0.00969177 0)
(1.00076 0.0122987 0)
(1.0098 0.00715646 0)
(1.01076 0.00333168 0)
(1.00929 -0.00212305 0)
(1.00524 -0.00559032 0)
(1.00324 -0.00505399 0)
(0.999255 -0.00997718 0)
(0.993704 -0.00400265 0)
(0.991162 -0.00406416 0)
(1.00136 0.00250244 0)
(1.00107 -0.00359178 0)
(0.997704 -0.000415826 0)
(0.996719 0.00361794 0)
(1.00664 0.00798412 0)
(1.00694 -0.00650418 0)
(1.00354 -0.00470555 0)
(0.994221 -0.0123644 0)
(0.986999 0.00321732 0)
(0.994495 0.00482081 0)
(0.997712 0.00932325 0)
(1.00049 0.0120581 0)
(1.00944 0.00688605 0)
(1.01031 0.00334176 0)
(1.00892 -0.00199522 0)
(1.00507 -0.00527142 0)
(1.0031 -0.00490697 0)
(0.99937 -0.00923312 0)
(0.994185 -0.00386196 0)
(0.991654 -0.00324058 0)
(1.00139 0.00246405 0)
(1.00104 -0.00353212 0)
(0.997809 -0.00035455 0)
(0.996752 0.00348842 0)
(1.00654 0.00776299 0)
(1.00672 -0.00634285 0)
(1.00353 -0.00453332 0)
(0.994511 -0.0119954 0)
(0.987411 0.00311902 0)
(0.994496 0.00475442 0)
(0.997742 0.00893243 0)
(1.00014 0.0118285 0)
(1.009 0.00660348 0)
(1.00982 0.00335403 0)
(1.00851 -0.00186497 0)
(1.00486 -0.00496888 0)
(1.00294 -0.00470678 0)
(0.999431 -0.00854455 0)
(0.994602 -0.00367955 0)
(0.992065 -0.00251558 0)
(1.00139 0.00242316 0)
(1.00102 -0.00346874 0)
(0.997903 -0.000294216 0)
(0.996791 0.00335805 0)
(1.00643 0.00753362 0)
(1.00649 -0.00617045 0)
(1.00345 -0.00437259 0)
(0.994789 -0.0116046 0)
(0.987838 0.00300419 0)
(0.994536 0.00471575 0)
(0.997826 0.00851823 0)
(0.99981 0.011614 0)
(1.00855 0.00630776 0)
(1.00935 0.00336107 0)
(1.00812 -0.00173225 0)
(1.00467 -0.00469116 0)
(1.00278 -0.00445146 0)
(0.999477 -0.00790215 0)
(0.99499 -0.00347115 0)
(0.99243 -0.00186005 0)
(1.00139 0.00237975 0)
(1.001 -0.00340141 0)
(0.998002 -0.00023497 0)
(0.996854 0.00322909 0)
(1.0063 0.00729474 0)
(1.00627 -0.00598491 0)
(1.00334 -0.00422544 0)
(0.995042 -0.0111906 0)
(0.988269 0.00286941 0)
(0.994611 0.00470178 0)
(0.99796 0.00808528 0)
(0.999553 0.0114074 0)
(1.00815 0.00601004 0)
(1.00894 0.00336283 0)
(1.00775 -0.00157021 0)
(1.0045 -0.00445547 0)
(1.00263 -0.00414471 0)
(0.999527 -0.00727897 0)
(0.995368 -0.00326996 0)
(0.992774 -0.00125612 0)
(1.00137 0.00233384 0)
(1.00098 -0.00332967 0)
(0.998103 -0.0001785 0)
(0.99695 0.00310291 0)
(1.00614 0.00704681 0)
(1.00605 -0.00578484 0)
(1.00323 -0.00409311 0)
(0.995276 -0.0107532 0)
(0.988696 0.00271495 0)
(0.994723 0.00470612 0)
(0.998128 0.00763757 0)
(0.999377 0.0111981 0)
(1.00778 0.00571926 0)
(1.00859 0.00333566 0)
(1.00739 -0.0013634 0)
(1.00436 -0.00426516 0)
(1.00249 -0.00380661 0)
(0.999583 -0.00665845 0)
(0.995744 -0.003093 0)
(0.993114 -0.000700284 0)
(1.00132 0.00228535 0)
(1.00097 -0.00325346 0)
(0.998192 -0.000125982 0)
(0.997083 0.0029792 0)
(1.00595 0.00678861 0)
(1.00585 -0.00556972 0)
(1.0031 -0.00397559 0)
(0.995509 -0.0102929 0)
(0.98911 0.00253946 0)
(0.994868 0.0047293 0)
(0.99831 0.00717917 0)
(0.999268 0.0109833 0)
(1.00743 0.00544139 0)
(1.00828 0.00327019 0)
(1.00704 -0.00111497 0)
(1.00425 -0.00409913 0)
(1.00237 -0.00346423 0)
(0.999647 -0.00602179 0)
(0.996119 -0.00293523 0)
(0.993464 -0.000208775 0)
(1.00125 0.00223416 0)
(1.00099 -0.00317233 0)
(0.99826 -7.87946e-05 0)
(0.997253 0.00286216 0)
(1.00573 0.00651632 0)
(1.00566 -0.00533776 0)
(1.00296 -0.00387363 0)
(0.995752 -0.00981091 0)
(0.989507 0.00234117 0)
(0.995041 0.00477087 0)
(0.998491 0.00671495 0)
(0.999209 0.0107569 0)
(1.00708 0.00519726 0)
(1.00801 0.00317402 0)
(1.00668 -0.000818145 0)
(1.00416 -0.00393568 0)
(1.00226 -0.00314123 0)
(0.999712 -0.00535253 0)
(0.996491 -0.00279475 0)
(0.993832 0.000207808 0)
(1.00115 0.00218041 0)
(1.00103 -0.00308597 0)
(0.998302 -3.90215e-05 0)
(0.997453 0.00275385 0)
(1.00548 0.0062317 0)
(1.00549 -0.00508954 0)
(1.00279 -0.00378872 0)
(0.996007 -0.00930825 0)
(0.989888 0.00212715 0)
(0.995234 0.00481906 0)
(0.998661 0.00625147 0)
(0.999184 0.0105069 0)
(1.00672 0.00500023 0)
(1.00777 0.00302896 0)
(1.0063 -0.000490289 0)
(1.00408 -0.00375991 0)
(1.00216 -0.00285805 0)
(0.999777 -0.00464812 0)
(0.996853 -0.0026525 0)
(0.994225 0.000542729 0)
(1.00103 0.00212364 0)
(1.00109 -0.00299305 0)
(0.998323 -7.99132e-06 0)
(0.997674 0.00265483 0)
(1.00522 0.00593431 0)
(1.00533 -0.00482566 0)
(1.0026 -0.00371727 0)
(0.99627 -0.00878994 0)
(0.990257 0.00190292 0)
(0.995436 0.00486559 0)
(0.998821 0.00580262 0)
(0.999181 0.0102206 0)
(1.00636 0.00484321 0)
(1.00755 0.00283673 0)
(1.00592 -0.00015033 0)
(1.00399 -0.00355233 0)
(1.00209 -0.00262506 0)
(0.999839 -0.0039264 0)
(0.997201 -0.00248779 0)
(0.994646 0.000794913 0)
(1.0009 0.00206343 0)
(1.00117 -0.00289204 0)
(0.99833 1.20279e-05 0)
(0.9979 0.00256741 0)
(1.00495 0.00562293 0)
(1.00519 -0.00454632 0)
(1.0024 -0.00365724 0)
(0.996534 -0.00825758 0)
(0.990623 0.00166946 0)
(0.995638 0.00490797 0)
(0.998972 0.00538057 0)
(0.999192 0.00989039 0)
(1.00598 0.00473038 0)
(1.00735 0.00261513 0)
(1.00554 0.000182712 0)
(1.0039 -0.00329457 0)
(1.00204 -0.00244122 0)
(0.999898 -0.00322165 0)
(0.997531 -0.00226872 0)
(0.995097 0.00095042 0)
(1.00077 0.00200019 0)
(1.00124 -0.00278358 0)
(0.998337 2.08862e-05 0)
(0.998121 0.00249196 0)
(1.00468 0.00529893 0)
(1.00504 -0.00425249 0)
(1.0022 -0.00361015 0)
(0.996788 -0.00771744 0)
(0.990996 0.00143534 0)
(0.995831 0.00493189 0)
(0.999118 0.00499375 0)
(0.999209 0.00952343 0)
(1.00559 0.00466577 0)
(1.00715 0.00237934 0)
(1.00518 0.000504753 0)
(1.00378 -0.00298125 0)
(1.00203 -0.0022965 0)
(0.99996 -0.00255659 0)
(0.997839 -0.00196877 0)
(0.995572 0.00100724 0)
(1.00065 0.00193347 0)
(1.0013 -0.0026659 0)
(0.998355 1.60317e-05 0)
(0.998324 0.00243037 0)
(1.00442 0.00496297 0)
(1.00489 -0.00394603 0)
(1.00203 -0.00357089 0)
(0.997027 -0.00718173 0)
(0.991384 0.00121236 0)
(0.996012 0.00493343 0)
(0.999263 0.00463894 0)
(0.99923 0.00912704 0)
(1.00521 0.00463736 0)
(1.00696 0.00213879 0)
(1.00484 0.000800535 0)
(1.00363 -0.00260762 0)
(1.00206 -0.00217765 0)
(1.00003 -0.00194709 0)
(0.998117 -0.0015976 0)
(0.99606 0.000991064 0)
(1.00055 0.00186279 0)
(1.00134 -0.0025369 0)
(0.998391 -4.75255e-06 0)
(0.998505 0.00238098 0)
(1.00417 0.00461729 0)
(1.00472 -0.00363395 0)
(1.00187 -0.00352913 0)
(0.997249 -0.00665739 0)
(0.991789 0.00100982 0)
(0.996179 0.00490041 0)
(0.999409 0.00432316 0)
(0.999252 0.00869474 0)
(1.00483 0.00463502 0)
(1.00677 0.0019085 0)
(1.00453 0.0010572 0)
(1.00346 -0.0021771 0)
(1.0021 -0.00206987 0)
(1.00012 -0.00142226 0)
(0.998363 -0.00115577 0)
(0.99655 0.000945327 0)
(1.00048 0.00178826 0)
(1.00135 -0.00239829 0)
(0.998448 -3.75984e-05 0)
(0.998662 0.00233992 0)
(1.00395 0.00426587 0)
(1.00453 -0.00331836 0)
(1.00174 -0.00348404 0)
(0.997453 -0.0061477 0)
(0.992209 0.000836466 0)
(0.996334 0.00483262 0)
(0.999556 0.00404664 0)
(0.999277 0.00823636 0)
(1.00445 0.00464947 0)
(1.00658 0.00170695 0)
(1.00426 0.00126288 0)
(1.00326 -0.00169889 0)
(1.00216 -0.00195416 0)
(1.00024 -0.000998004 0)
(0.998577 -0.000658167 0)
(0.997021 0.000929184 0)
(1.00042 0.00171055 0)
(1.00135 -0.00224991 0)
(0.998524 -8.47952e-05 0)
(0.998799 0.00230961 0)
(1.00375 0.00391268 0)
(1.00433 -0.0030062 0)
(1.00163 -0.00342755 0)
(0.997646 -0.00566583 0)
(0.992641 0.000694739 0)
(0.996481 0.00473714 0)
(0.999701 0.00380177 0)
(0.999307 0.0077682 0)
(1.00407 0.00467382 0)
(1.00639 0.00153222 0)
(1.00403 0.00140953 0)
(1.00303 -0.00118223 0)
(1.00222 -0.0018009 0)
(1.00038 -0.000678377 0)
(0.998768 -0.000163445 0)
(0.997451 0.000984265 0)
(1.00038 0.00162906 0)
(1.00133 -0.00209107 0)
(0.998614 -0.000144465 0)
(0.998919 0.00228718 0)
(1.00356 0.00356047 0)
(1.00412 -0.0027075 0)
(1.00153 -0.00334851 0)
(0.997831 -0.00522772 0)
(0.993078 0.00058252 0)
(0.996625 0.0046115 0)
(0.999842 0.0035839 0)
(0.999346 0.00729596 0)
(1.0037 0.00470445 0)
(1.00619 0.00139817 0)
(1.00384 0.00150904 0)
(1.00279 -0.000653255 0)
(1.00227 -0.00159279 0)
(1.00056 -0.000444849 0)
(0.998947 0.000295286 0)
(0.997827 0.00113537 0)
(1.00035 0.0015436 0)
(1.0013 -0.00192296 0)
(0.998715 -0.000212992 0)
(0.999026 0.00226731 0)
(1.00338 0.00321806 0)
(1.0039 -0.00242532 0)
(1.00144 -0.00324467 0)
(0.998011 -0.00482544 0)
(0.993515 0.000498027 0)
(0.996766 0.00447262 0)
(0.999979 0.00338782 0)
(0.999398 0.00682573 0)
(1.00334 0.00474061 0)
(1.00599 0.00131279 0)
(1.0037 0.00155748 0)
(1.00255 -0.000132269 0)
(1.00229 -0.00132799 0)
(1.00076 -0.000269755 0)
(0.99913 0.000712828 0)
(0.998139 0.00139027 0)
(1.00032 0.00145604 0)
(1.00126 -0.0017489 0)
(0.998821 -0.000288883 0)
(0.999125 0.00224802 0)
(1.00321 0.00289217 0)
(1.00368 -0.00216952 0)
(1.00135 -0.00310942 0)
(0.998188 -0.00445608 0)
(0.99395 0.000433321 0)
(0.996907 0.00432354 0)
(1.00011 0.00321559 0)
(0.999467 0.00635739 0)
(1.00298 0.00477301 0)
(1.00578 0.00127054 0)
(1.0036 0.00155809 0)
(1.00231 0.00035947 0)
(1.00227 -0.00100565 0)
(1.00099 -0.000134629 0)
(0.999335 0.00105032 0)
(0.998388 0.00172632 0)
(1.0003 0.00136592 0)
(1.00121 -0.00157018 0)
(0.998931 -0.000368175 0)
(0.999216 0.00222082 0)
(1.00304 0.00259184 0)
(1.00346 -0.00194926 0)
(1.00126 -0.00294974 0)
(0.998361 -0.00412207 0)
(0.994381 0.000373985 0)
(0.997048 0.0041631 0)
(1.00023 0.00306021 0)
(0.999554 0.00589961 0)
(1.00264 0.00479805 0)
(1.00555 0.00128441 0)
(1.00354 0.00152212 0)
(1.00209 0.00080831 0)
(1.00222 -0.000635039 0)
(1.00121 -1.99114e-06 0)
(0.999575 0.00129282 0)
(0.998603 0.00206907 0)
(1.00028 0.00127338 0)
(1.00116 -0.00138782 0)
(0.999041 -0.000444859 0)
(0.999302 0.00217802 0)
(1.00288 0.00232688 0)
(1.00325 -0.00176536 0)
(1.00117 -0.00276958 0)
(0.998528 -0.00381257 0)
(0.994807 0.000321091 0)
(0.997189 0.00400244 0)
(1.00034 0.0029237 0)
(0.999659 0.00545948 0)
(1.00231 0.00481753 0)
(1.00531 0.00135449 0)
(1.00352 0.00145971 0)
(1.00191 0.0012052 0)
(1.00213 -0.000229493 0)
(1.00143 0.000138346 0)
(0.999845 0.00146215 0)
(0.998807 0.00235244 0)
(1.00026 0.00118139 0)
(1.0011 -0.00120918 0)
(0.999149 -0.000513835 0)
(0.999385 0.00211083 0)
(1.00272 0.0020954 0)
(1.00304 -0.00160984 0)
(1.00108 -0.00257475 0)
(0.99869 -0.00351434 0)
(0.995227 0.000276082 0)
(0.997332 0.0038412 0)
(1.00043 0.0028078 0)
(0.999782 0.00503744 0)
(1.00201 0.00482143 0)
(1.00504 0.00147579 0)
(1.00352 0.00138579 0)
(1.00176 0.00152812 0)
(1.00201 0.000189407 0)
(1.00162 0.000280276 0)
(1.00014 0.00158109 0)
(0.999022 0.00256678 0)
(1.00023 0.00108901 0)
(1.00104 -0.00103478 0)
(0.999254 -0.000569609 0)
(0.999464 0.00201657 0)
(1.00256 0.00189354 0)
(1.00284 -0.0014726 0)
(1.001 -0.00237834 0)
(0.998844 -0.00322629 0)
(0.995641 0.000233955 0)
(0.997478 0.00367937 0)
(1.00051 0.00271039 0)
(0.999921 0.0046392 0)
(1.00173 0.00480716 0)
(1.00475 0.00163181 0)
(1.00354 0.00130441 0)
(1.00165 0.00177677 0)
(1.00187 0.000620623 0)
(1.00179 0.000447568 0)
(1.00046 0.00167099 0)
(0.999261 0.00272728 0)
(1.00021 0.000997476 0)
(1.00097 -0.0008687 0)
(0.999353 -0.000601231 0)
(0.999541 0.00189407 0)
(1.0024 0.00171725 0)
(1.00265 -0.00134259 0)
(1.00091 -0.00218519 0)
(0.998991 -0.00294718 0)
(0.996048 0.000202828 0)
(0.997628 0.00352276 0)
(1.00058 0.002639 0)
(1.00007 0.00426746 0)
(1.00149 0.00476344 0)
(1.00444 0.00182005 0)
(1.00356 0.00123032 0)
(1.0016 0.00194 0)
(1.00171 0.0010537 0)
(1.00191 0.000646351 0)
(1.00078 0.00173139 0)
(0.999523 0.00284832 0)
(1.00019 0.000909386 0)
(1.00091 -0.000717264 0)
(0.999445 -0.000607907 0)
(0.999616 0.00174969 0)
(1.00225 0.00155453 0)
(1.00246 -0.0012175 0)
(1.00083 -0.00198716 0)
(0.999131 -0.00267024 0)
(0.996445 0.000180226 0)
(0.997783 0.00337836 0)
(1.00064 0.00259205 0)
(1.00024 0.00391371 0)
(1.00128 0.00466936 0)
(1.00411 0.00202918 0)
(1.00358 0.00118715 0)
(1.0016 0.00202056 0)
(1.00156 0.00145654 0)
(1.00198 0.000879964 0)
(1.0011 0.00176088 0)
(0.999812 0.00292591 0)
(1.00018 0.00082296 0)
(1.00084 -0.000580138 0)
(0.999529 -0.000594239 0)
(0.999686 0.0015979 0)
(1.0021 0.00138846 0)
(1.00228 -0.0010998 0)
(1.00075 -0.00178147 0)
(0.999262 -0.00238294 0)
(0.996833 0.000175267 0)
(0.997944 0.00324203 0)
(1.00068 0.00256268 0)
(1.0004 0.00357757 0)
(1.00112 0.00451978 0)
(1.00377 0.00223385 0)
(1.00358 0.00117925 0)
(1.00165 0.00203804 0)
(1.00142 0.00181097 0)
(1.00201 0.00115562 0)
(1.00141 0.00178144 0)
(1.00013 0.00295319 0)
(1.00016 0.000740903 0)
(1.00077 -0.000462555 0)
(0.999604 -0.000568051 0)
(0.999751 0.00144364 0)
(1.00195 0.00122907 0)
(1.00211 -0.000994403 0)
(1.00068 -0.0015663 0)
(0.999385 -0.00208444 0)
(0.997211 0.000187169 0)
(0.998109 0.00310513 0)
(1.00071 0.0025497 0)
(1.00057 0.00327304 0)
(1.00099 0.00433046 0)
(1.00343 0.00242013 0)
(1.00356 0.00121379 0)
(1.00174 0.00200823 0)
(1.00132 0.00210102 0)
(1.00199 0.00146202 0)
(1.00169 0.00181936 0)
(1.00048 0.00292562 0)
(1.00014 0.000662717 0)
(1.0007 -0.000364352 0)
(0.999672 -0.000532549 0)
(0.999811 0.00129959 0)
(1.00182 0.00107957 0)
(1.00195 -0.000914641 0)
(1.00061 -0.00134857 0)
(0.999499 -0.001781 0)
(0.997575 0.000216269 0)
(0.998281 0.00297394 0)
(1.00072 0.00254916 0)
(1.00072 0.0030049 0)
(1.00091 0.00410968 0)
(1.0031 0.00258602 0)
(1.00351 0.00129658 0)
(1.00187 0.00195529 0)
(1.00127 0.00231856 0)
(1.00194 0.00177553 0)
(1.00192 0.00189852 0)
(1.00085 0.002862 0)
(1.00012 0.000589639 0)
(1.00064 -0.000284188 0)
(0.999732 -0.000494351 0)
(0.999866 0.00116767 0)
(1.00169 0.000941205 0)
(1.00181 -0.000853218 0)
(1.00056 -0.00114058 0)
(0.999606 -0.00147931 0)
(0.997925 0.000267712 0)
(0.99846 0.00284943 0)
(1.00072 0.00255768 0)
(1.00086 0.00277818 0)
(1.00088 0.00386748 0)
(1.00279 0.0027207 0)
(1.00343 0.00141564 0)
(1.00202 0.00190038 0)
(1.00127 0.00246311 0)
(1.00188 0.0020731 0)
(1.00209 0.0020285 0)
(1.00121 0.00279683 0)
(1.00011 0.000520678 0)
(1.00058 -0.00021493 0)
(0.999786 -0.000465603 0)
(0.999917 0.00105221 0)
(1.00157 0.000810004 0)
(1.00169 -0.000804 0)
(1.00053 -0.000958955 0)
(0.999708 -0.00117505 0)
(0.99826 0.0003491 0)
(0.998646 0.00273489 0)
(1.00072 0.00257228 0)
(1.00099 0.00260189 0)
(1.00088 0.0036204 0)
(1.00251 0.00281449 0)
(1.00333 0.00155917 0)
(1.00218 0.00185567 0)
(1.00132 0.00254212 0)
(1.00181 0.00233292 0)
(1.00221 0.00218864 0)
(1.00155 0.00275044 0)
(1.00009 0.000451631 0)
(1.00052 -0.000148128 0)
(0.999836 -0.000445952 0)
(0.999963 0.000951205 0)
(1.00145 0.000686096 0)
(1.00158 -0.000776721 0)
(1.00051 -0.000813757 0)
(0.999809 -0.000843749 0)
(0.998576 0.000460711 0)
(0.998835 0.00262816 0)
(1.00071 0.00258109 0)
(1.00109 0.00246839 0)
(1.00091 0.0033816 0)
(1.00227 0.00287323 0)
(1.00321 0.00172298 0)
(1.00234 0.00183138 0)
(1.00143 0.00256594 0)
(1.00177 0.00254639 0)
(1.00228 0.00236284 0)
(1.00184 0.00273969 0)
(1.00008 0.00039037 0)
(1.00046 -9.85555e-05 0)
(0.999878 -0.000417381 0)
(1 0.000852173 0)
(1.00133 0.000630172 0)
(1.00148 -0.000703126 0)
(1.00052 -0.000662213 0)
(0.99991 -0.000577418 0)
(0.998867 0.000543782 0)
(0.999027 0.00248818 0)
(1.0007 0.00256017 0)
(1.00119 0.00236421 0)
(1.00098 0.00316113 0)
(1.00208 0.00289048 0)
(1.00307 0.00188561 0)
(1.00247 0.00183277 0)
(1.00157 0.00254688 0)
(1.00175 0.00270686 0)
(1.00231 0.00253713 0)
(1.00208 0.00276158 0)
(1.00006 0.000336712 0)
(1.00041 -6.475e-05 0)
(0.999918 -0.000377513 0)
(1.00005 0.000756249 0)
(1.00123 0.00063602 0)
(1.00139 -0.000565107 0)
(1.00053 -0.000523231 0)
(1.00001 -0.000388154 0)
(0.999141 0.000584869 0)
(0.99922 0.00231172 0)
(1.0007 0.0025026 0)
(1.00126 0.0022793 0)
(1.00106 0.00296264 0)
(1.00193 0.00287687 0)
(1.00292 0.00203763 0)
(1.00258 0.00186435 0)
(1.00175 0.0025029 0)
(1.00178 0.00280878 0)
(1.00233 0.00269659 0)
(1.00227 0.00280715 0)
(1.00005 0.000284274 0)
(1.00036 -3.12513e-05 0)
(0.999954 -0.000337133 0)
(1.0001 0.00067706 0)
(1.00114 0.000645522 0)
(1.0013 -0.000430081 0)
(1.00055 -0.000415334 0)
(1.00011 -0.000212672 0)
(0.999394 0.000627124 0)
(0.999413 0.00215415 0)
(1.0007 0.0024428 0)
(1.00132 0.00222065 0)
(1.00115 0.00279363 0)
(1.00182 0.00284979 0)
(1.00278 0.00217809 0)
(1.00266 0.00192214 0)
(1.00195 0.00245207 0)
(1.00185 0.00285436 0)
(1.00235 0.00282662 0)
(1.00241 0.0028708 0)
(1.00004 0.000238926 0)
(1.00031 -3.39553e-06 0)
(0.999986 -0.000290555 0)
(1.00014 0.00060245 0)
(1.00106 0.000644861 0)
(1.00122 -0.000296296 0)
(1.00058 -0.000305067 0)
(1.00021 -6.63125e-05 0)
(0.99963 0.000684073 0)
(0.999606 0.00203138 0)
(1.00073 0.00239021 0)
(1.00137 0.00217663 0)
(1.00125 0.0026439 0)
(1.00176 0.00279949 0)
(1.00265 0.00229374 0)
(1.00272 0.00199779 0)
(1.00215 0.00240965 0)
(1.00196 0.00285874 0)
(1.00238 0.00291843 0)
(1.00252 0.00293907 0)
(1.00003 0.000200194 0)
(1.00027 1.70197e-05 0)
(1.00001 -0.000239793 0)
(1.00019 0.000523513 0)
(1.00099 0.000639145 0)
(1.00115 -0.00015501 0)
(1.00061 -0.000188937 0)
(1.0003 6.31173e-05 0)
(0.999851 0.000742353 0)
(0.999797 0.00192905 0)
(1.00075 0.00232667 0)
(1.00141 0.00213351 0)
(1.00135 0.00250827 0)
(1.00173 0.00272895 0)
(1.00254 0.00238139 0)
(1.00275 0.00208883 0)
(1.00234 0.00238408 0)
(1.00211 0.00283574 0)
(1.00243 0.00297122 0)
(1.0026 0.00299249 0)
(1.00002 0.000167179 0)
(1.00023 3.21502e-05 0)
(1.00004 -0.000186879 0)
(1.00024 0.000451462 0)
(1.00094 0.000625705 0)
(1.00108 -1.57794e-05 0)
(1.00063 -6.27287e-05 0)
(1.0004 0.000177808 0)
(1.00006 0.000786121 0)
(0.999983 0.00183712 0)
(1.00079 0.00225903 0)
(1.00144 0.00209768 0)
(1.00145 0.00239251 0)
(1.00173 0.00265156 0)
(1.00246 0.00244222 0)
(1.00276 0.0021812 0)
(1.00251 0.00237332 0)
(1.00227 0.00279057 0)
(1.0025 0.00299029 0)
(1.00267 0.00302101 0)
(1.00001 0.000141515 0)
(1.0002 3.98922e-05 0)
(1.00006 -0.000130554 0)
(1.00028 0.00039176 0)
(1.0009 0.000600878 0)
(1.00102 0.000115596 0)
(1.00066 6.96424e-05 0)
(1.00049 0.000286221 0)
(1.00025 0.000824132 0)
(1.00017 0.00175176 0)
(1.00084 0.00219983 0)
(1.00147 0.00207273 0)
(1.00155 0.00229425 0)
(1.00176 0.00256679 0)
(1.0024 0.00247424 0)
(1.00276 0.00226078 0)
(1.00266 0.00237964 0)
(1.00244 0.00273646 0)
(1.00259 0.00298405 0)
(1.00275 0.00302959 0)
(1.00001 0.00012227 0)
(1.00017 4.2973e-05 0)
(1.00008 -7.15188e-05 0)
(1.00032 0.000347785 0)
(1.00088 0.000567727 0)
(1.00097 0.000234362 0)
(1.00068 0.000206205 0)
(1.00057 0.000391281 0)
(1.00043 0.000859364 0)
(1.00034 0.00167005 0)
(1.0009 0.00214005 0)
(1.00149 0.00205937 0)
(1.00164 0.00221794 0)
(1.00181 0.00247553 0)
(1.00237 0.00247708 0)
(1.00276 0.00232088 0)
(1.00278 0.0023979 0)
(1.00262 0.00268548 0)
(1.0027 0.00295403 0)
(1.00282 0.00302202 0)
(0.999998 0.000109071 0)
(1.00015 4.5729e-05 0)
(1.00009 -1.0399e-05 0)
(1.00036 0.000325159 0)
(1.00087 0.000525066 0)
(1.00094 0.000328705 0)
(1.0007 0.00034081 0)
(1.00064 0.000498386 0)
(1.00059 0.000894032 0)
(1.00052 0.00159547 0)
(1.00097 0.00207355 0)
(1.00151 0.00204587 0)
(1.00172 0.00216439 0)
(1.00188 0.00239106 0)
(1.00236 0.00245709 0)
(1.00276 0.00235926 0)
(1.00288 0.00241463 0)
(1.00278 0.00263973 0)
(1.00282 0.0029034 0)
(1.0029 0.00299703 0)
(0.999992 0.000101374 0)
(1.00013 4.89123e-05 0)
(1.00011 4.75885e-05 0)
(1.00039 0.000323314 0)
(1.00087 0.000483427 0)
(1.00092 0.000393874 0)
(1.00073 0.0004641 0)
(1.00071 0.000607887 0)
(1.00074 0.000931524 0)
(1.00069 0.00152743 0)
(1.00105 0.00200429 0)
(1.00154 0.00202684 0)
(1.0018 0.00212419 0)
(1.00195 0.00232089 0)
(1.00238 0.00242262 0)
(1.00277 0.00237549 0)
(1.00296 0.00242338 0)
(1.00293 0.00259658 0)
(1.00295 0.00284194 0)
(1.00299 0.00295539 0)
(0.999987 9.74584e-05 0)
(1.00012 5.50995e-05 0)
(1.00013 9.72052e-05 0)
(1.00041 0.000336583 0)
(1.00087 0.000452886 0)
(1.00092 0.000434773 0)
(1.00076 0.000569655 0)
(1.00076 0.000714049 0)
(1.00086 0.00097559 0)
(1.00085 0.00146677 0)
(1.00114 0.00193283 0)
(1.00157 0.00200597 0)
(1.00186 0.00209059 0)
(1.00202 0.00226039 0)
(1.00241 0.0023838 0)
(1.00279 0.00237333 0)
(1.00303 0.00242553 0)
(1.00306 0.00255531 0)
(1.00308 0.00277465 0)
(1.00308 0.00289789 0)
(0.999983 9.63314e-05 0)
(1.00012 6.4991e-05 0)
(1.00015 0.000137672 0)
(1.00042 0.000361238 0)
(1.00088 0.000437248 0)
(1.00094 0.000459926 0)
(1.0008 0.000653583 0)
(1.00082 0.000814554 0)
(1.00097 0.0010287 0)
(1.00099 0.00142093 0)
(1.00124 0.00185445 0)
(1.00161 0.00197697 0)
(1.00192 0.00206392 0)
(1.00209 0.00220537 0)
(1.00245 0.00234232 0)
(1.00282 0.00235575 0)
(1.00309 0.00241617 0)
(1.00317 0.002516 0)
(1.00321 0.00270335 0)
(1.00317 0.00283022 0)
(0.99998 9.68692e-05 0)
(1.00011 7.80201e-05 0)
(1.00017 0.00016654 0)
(1.00044 0.000390477 0)
(1.00088 0.000443453 0)
(1.00096 0.000478782 0)
(1.00085 0.000711299 0)
(1.00087 0.000902637 0)
(1.00105 0.00108771 0)
(1.00112 0.00139377 0)
(1.00135 0.00178003 0)
(1.00166 0.00193401 0)
(1.00197 0.00203974 0)
(1.00216 0.00215794 0)
(1.0025 0.00229563 0)
(1.00285 0.00232704 0)
(1.00315 0.00239119 0)
(1.00327 0.00247516 0)
(1.00333 0.00263038 0)
(1.00327 0.00275427 0)
(0.999977 9.76786e-05 0)
(1.00011 9.59883e-05 0)
(1.00019 0.00018644 0)
(1.00045 0.000420003 0)
(1.00088 0.000468054 0)
(1.00098 0.000500675 0)
(1.00091 0.000749167 0)
(1.00092 0.000972857 0)
(1.00113 0.00114777 0)
(1.00123 0.00138072 0)
(1.00145 0.00171887 0)
(1.00172 0.00188168 0)
(1.00202 0.0020047 0)
(1.00223 0.00211545 0)
(1.00255 0.00224791 0)
(1.00289 0.00229195 0)
(1.0032 0.00235699 0)
(1.00336 0.0024272 0)
(1.00344 0.00255721 0)
(1.00336 0.00266843 0)
(0.999975 9.88401e-05 0)
(1.00011 0.000116138 0)
(1.00022 0.00020364 0)
(1.00046 0.000446356 0)
(1.00088 0.000504576 0)
(1.00101 0.000529443 0)
(1.00098 0.000775547 0)
(1.00098 0.00102417 0)
(1.00119 0.0012041 0)
(1.00132 0.00138036 0)
(1.00154 0.00166777 0)
(1.00178 0.00183142 0)
(1.00208 0.00195959 0)
(1.00229 0.0020677 0)
(1.0026 0.00220025 0)
(1.00293 0.00224897 0)
(1.00325 0.00231715 0)
(1.00343 0.00237168 0)
(1.00353 0.00248218 0)
(1.00345 0.00257714 0)
(0.999974 9.95196e-05 0)
(1.00011 0.000139425 0)
(1.00024 0.000218628 0)
(1.00048 0.000464503 0)
(1.00087 0.000548625 0)
(1.00103 0.000569686 0)
(1.00105 0.000796756 0)
(1.00105 0.00105514 0)
(1.00125 0.00124943 0)
(1.0014 0.00139373 0)
(1.00163 0.00162681 0)
(1.00184 0.00178526 0)
(1.00214 0.00191775 0)
(1.00236 0.00201395 0)
(1.00266 0.00214746 0)
(1.00297 0.00219837 0)
(1.0033 0.00226833 0)
(1.00349 0.00231329 0)
(1.00361 0.00240249 0)
(1.00354 0.00248347 0)
(0.999973 0.000100116 0)
(1.00011 0.000163834 0)
(1.00026 0.000235364 0)
(1.0005 0.000476185 0)
(1.00087 0.000591803 0)
(1.00105 0.000621111 0)
(1.00112 0.000820695 0)
(1.00112 0.00107186 0)
(1.00131 0.00128004 0)
(1.00146 0.00141124 0)
(1.0017 0.00160167 0)
(1.00191 0.00173767 0)
(1.00219 0.00187494 0)
(1.00242 0.00196079 0)
(1.00271 0.00208616 0)
(1.00301 0.00214193 0)
(1.00334 0.00220885 0)
(1.00355 0.0022518 0)
(1.00368 0.0023212 0)
(1.00361 0.00238586 0)
(0.999973 0.000101209 0)
(1.00011 0.000186857 0)
(1.00028 0.000255844 0)
(1.00052 0.000485312 0)
(1.00088 0.000629768 0)
(1.00107 0.000677352 0)
(1.00118 0.000850259 0)
(1.00119 0.00108282 0)
(1.00137 0.00129885 0)
(1.00152 0.00142331 0)
(1.00177 0.00159002 0)
(1.00197 0.00169952 0)