/*--------------------------------*- C++ -*----------------------------------*\
| =========                 |                                                 |
| \\      /  F ield         | OpenFOAM: The Open Source CFD Toolbox           |
|  \\    /   O peration     | Version:  3.0.1                                 |
|   \\  /    A nd           | Web:      www.OpenFOAM.org                      |
|    \\/     M anipulation  |                                                 |
\*---------------------------------------------------------------------------*/
FoamFile
{
    version     2.0;
    format      ascii;
    class       volScalarField;
    location    "2.6";
    object      p;
}
// * * * * * * * * * * * * * * * * * * * * * * * * * * * * * * * * * * * * * //

dimensions      [0 2 -2 0 0 0 0];

internalField   nonuniform List<scalar> 
9600
(
7.64357e-11
-0.000633765
-0.00286531
-0.00121191
0.00116429
-0.000544955
-0.00140929
0.000743297
-4.77737e-05
0.00021815
0.000556603
0.00232243
0.00242034
0.00241551
0.00328939
0.0044185
0.00590465
0.00714273
0.00977205
0.0157177
3.71624e-07
-0.000640802
-0.002854
-0.00120246
0.0011424
-0.000556557
-0.00137794
0.000736413
-3.42537e-05
0.000201917
0.000553287
0.00233069
0.00241056
0.00240691
0.00328888
0.00440005
0.00593302
0.00710804
0.0100601
0.0152723
-5.41026e-07
-0.000649088
-0.00283901
-0.00119529
0.00111012
-0.000566425
-0.00135387
0.00072569
-1.60071e-05
0.000187861
0.000556876
0.00233831
0.00239065
0.00240101
0.00328174
0.00438285
0.0059437
0.00706652
0.0101573
0.0146726
-2.77063e-06
-0.000657475
-0.00282149
-0.00118988
0.00107691
-0.000573797
-0.00133525
0.000710647
7.29531e-06
0.000172278
0.000567356
0.00234012
0.00236818
0.00239812
0.00327066
0.00436244
0.00595779
0.00702008
0.010216
0.0141662
-6.2243e-06
-0.000665575
-0.00279899
-0.00118545
0.00104294
-0.000577919
-0.00131912
0.000691733
3.61075e-05
0.000153894
0.000581942
0.00233731
0.00234493
0.00239454
0.00326048
0.00433987
0.00597491
0.0069692
0.0102453
0.0137101
-1.07814e-05
-0.000672582
-0.00277056
-0.00118331
0.00100908
-0.000577635
-0.00130392
0.000669941
6.9239e-05
0.000132842
0.000598242
0.00233154
0.00232138
0.00239035
0.00325352
0.00431603
0.00599238
0.00691514
0.0102422
0.0132841
-1.61124e-05
-0.00067811
-0.00273682
-0.00118354
0.000977559
-0.000573014
-0.00128857
0.000646574
0.000105378
0.000110186
0.000614536
0.00232464
0.00229843
0.00238577
0.00325069
0.00429123
0.00600785
0.00686018
0.0102017
0.0128823
-2.18513e-05
-0.000682296
-0.00269894
-0.0011852
0.000949056
-0.000565132
-0.00127226
0.000622533
0.000143653
8.70849e-05
0.000629904
0.00231801
0.00227613
0.00238043
0.00325179
0.00426588
0.0060192
0.00680565
0.0101111
0.0125011
-2.77299e-05
-0.00068554
-0.00265807
-0.00118747
0.0009227
-0.000557127
-0.00125461
0.000598232
0.000183545
6.43315e-05
0.000643895
0.00231194
0.00225432
0.00237418
0.00325574
0.0042409
0.00602419
0.00675211
0.00998747
0.012137
-3.35975e-05
-0.00068829
-0.00261515
-0.00118992
0.000897154
-0.0005488
-0.00123555
0.000573757
0.000224689
4.2316e-05
0.000656102
0.00230643
0.00223311
0.00236671
0.0032612
0.0042171
0.0060205
0.00669914
0.00982675
0.0117854
-3.9398e-05
-0.000690904
-0.00257081
-0.00119236
0.000871386
-0.000540632
-0.00121525
0.000548996
0.000266727
2.12196e-05
0.000666182
0.00230169
0.00221239
0.00235766
0.00326692
0.00419479
0.00600589
0.0066458
0.00963231
0.0114411
-4.51164e-05
-0.000693621
-0.00252535
-0.0011947
0.000844813
-0.00053287
-0.00119387
0.000523781
0.000309282
1.21034e-06
0.000673861
0.00229791
0.00219173
0.00234697
0.00327147
0.00417389
0.00597913
0.0065905
0.00940829
0.0110985
-5.07332e-05
-0.000696597
-0.0024789
-0.00119689
0.000817185
-0.000525618
-0.00117156
0.000498006
0.000351973
-1.74313e-05
0.000678792
0.00229513
0.00217074
0.00233474
0.00327345
0.00415426
0.00593986
0.00653052
0.0091595
0.0107535
-5.62158e-05
-0.000699936
-0.00243151
-0.00119886
0.000788449
-0.000518868
-0.00114843
0.000471684
0.000394415
-3.43563e-05
0.00068054
0.00229344
0.00214907
0.00232091
0.00327196
0.00413549
0.00588848
0.00646256
0.00889059
0.010404
-6.1524e-05
-0.000703702
-0.00238318
-0.00120056
0.000758637
-0.000512522
-0.00112463
0.000444928
0.000436231
-4.91878e-05
0.00067861
0.00229304
0.00212637
0.00230538
0.00326671
0.0041164
0.00582615
0.00638368
0.00860503
0.0100491
-6.66169e-05
-0.000707937
-0.00233393
-0.00120196
0.000727802
-0.000506439
-0.00110029
0.000417902
0.000477012
-6.14949e-05
0.000672525
0.00229402
0.00210249
0.00228814
0.00325786
0.00409498
0.00575415
0.00629189
0.00830523
0.00968908
-7.14587e-05
-0.000712663
-0.00228381
-0.00120297
0.00069598
-0.000500469
-0.00107561
0.000390838
0.000516285
-7.08378e-05
0.000661878
0.00229634
0.00207748
0.00226868
0.00324591
0.00406884
0.00567362
0.00618647
0.00799281
0.00932438
-7.60213e-05
-0.000717886
-0.00223288
-0.00120354
0.000663163
-0.000494449
-0.0010508
0.000364016
0.000553598
-7.68159e-05
0.000646298
0.00229984
0.00205153
0.002246
0.00323202
0.0040351
0.00558424
0.00606852
0.00766891
0.00895511
-8.02832e-05
-0.000723588
-0.00218123
-0.00120357
0.000629294
-0.000488176
-0.00102613
0.00033768
0.000588505
-7.90626e-05
0.000625518
0.0023042
0.00202514
0.00221895
0.00321746
0.00399144
0.00548455
0.00594032
0.00733399
0.0085805
-8.42366e-05
-0.000729722
-0.002129
-0.00120294
0.000594266
-0.000481424
-0.00100187
0.000312037
0.000620498
-7.72256e-05
0.000599533
0.00230877
0.00199935
0.00218596
0.00320263
0.00393551
0.00537248
0.00580432
0.00698936
0.00819889
-8.78934e-05
-0.000736216
-0.00207635
-0.0012015
0.000557938
-0.000473972
-0.000978287
0.000287295
0.000649188
-7.10238e-05
0.000568656
0.00231253
0.00197525
0.00214534
0.00318708
0.00387362
0.00524571
0.00566247
0.00663807
0.00780763
-9.12791e-05
-0.000742974
-0.00202345
-0.00119906
0.000520141
-0.000465605
-0.000955656
0.000263583
0.000674317
-5.87034e-05
0.000533467
0.00231423
0.00195384
0.00209577
0.00317001
0.00380621
0.00510148
0.00551583
0.00628485
0.00740346
-9.44377e-05
-0.000749854
-0.00197053
-0.00119539
0.000480693
-0.000456149
-0.000934144
0.000240924
0.000695615
-4.33078e-05
0.000494843
0.00231252
0.00193627
0.00203643
0.00314986
0.00373488
0.0049373
0.00536392
0.00593586
0.00698406
-9.74427e-05
-0.00075666
-0.00191786
-0.00119028
0.000439437
-0.000445462
-0.000913867
0.000219173
0.000713103
-2.58655e-05
0.000453928
0.00230603
0.00192329
0.00196699
0.00312411
0.00366245
0.00475242
0.00520401
0.00559711
0.00654907
-0.000100393
-0.00076315
-0.00186572
-0.00118352
0.000396239
-0.000433464
-0.000894839
0.000197992
0.00072714
-6.71706e-06
0.000411621
0.00229346
0.00191503
0.00188788
0.00308988
0.00359135
0.00454808
0.00503162
0.00527405
0.00610042
-0.000103415
-0.000769026
-0.00181438
-0.00117495
0.000350967
-0.000420192
-0.000876941
0.000176991
0.00073816
1.35511e-05
0.000368502
0.00227371
0.00191144
0.00180024
0.00304365
0.00352302
0.00432758
0.00484211
0.00497113
0.00564306
-0.00010667
-0.000773941
-0.00176416
-0.0011644
0.0003036
-0.000405758
-0.000859953
0.000155621
0.000746686
3.42539e-05
0.000325008
0.00224603
0.00191217
0.00170519
0.00298188
0.0034583
0.0040955
0.00463065
0.00469086
0.00518626
-0.000110352
-0.0007775
-0.00171532
-0.00115179
0.000254204
-0.000390416
-0.000843324
0.000133012
0.000753192
5.51793e-05
0.000281099
0.00220981
0.00191644
0.00160401
0.00290178
0.00339697
0.00385725
0.00439296
0.00443251
0.00474402
-0.000114674
-0.000779298
-0.00166807
-0.00113715
0.000202849
-0.000374559
-0.000826192
0.000108117
0.00075779
7.6356e-05
0.000236478
0.00216439
0.00192345
0.00149853
0.00280078
0.00333743
0.00361954
0.00412635
0.00418987
0.00433204
-0.00011988
-0.000778928
-0.00162256
-0.00112062
0.000149862
-0.000358884
-0.000807512
8.0331e-05
0.000760034
9.79862e-05
0.000190978
0.00210894
0.00193207
0.00139091
0.00267693
0.00327655
0.00338992
0.00383159
0.0039506
0.00396411
-0.000126222
-0.000775986
-0.00157887
-0.00110244
9.58032e-05
-0.000344412
-0.000786149
4.97253e-05
0.000758807
0.000120419
0.000144508
0.00204258
0.0019408
0.00128315
0.00252936
0.00321029
0.00317479
0.00351379
0.00369997
0.00364478
-0.000133957
-0.000770062
-0.00153707
-0.00108307
4.15363e-05
-0.000332295
-0.000761522
1.67159e-05
0.000752804
0.000143905
9.71504e-05
0.00196427
0.0019484
0.00117759
0.00235796
0.00313382
0.00297855
0.00318213
0.00342544
0.00336495
-0.000143332
-0.000760839
-0.00149701
-0.00106305
-1.16973e-05
-0.00032368
-0.000733631
-1.78666e-05
0.00074066
0.00016822
4.94273e-05
0.00187317
0.00195302
0.00107701
0.00216351
0.0030419
0.00280305
0.00284719
0.00312177
0.00310825
-0.000154577
-0.000748116
-0.00145819
-0.00104339
-6.28193e-05
-0.000319134
-0.000702953
-5.25196e-05
0.000721202
0.000192341
1.86672e-06
0.00176863
0.00195195
0.000984091
0.00194837
0.00292986
0.00264807
0.00251822
0.00279098
0.00285587
-0.000167837
-0.000731858
-0.00141987
-0.00102537
-0.000111023
-0.00031861
-0.000670691
-8.55516e-05
0.000693841
0.000214516
-4.531e-05
0.00164994
0.00194246
0.000901775
0.00171618
0.00279338
0.00251192
0.00220259
0.00243795
0.00259273
-0.000183219
-0.0007123
-0.00138105
-0.00100979
-0.000155693
-0.000321386
-0.000638768
-0.000116287
0.000658393
0.000233285
-9.16327e-05
0.00151682
0.00192173
0.000832569
0.00147149
0.00262806
0.00239164
0.00190766
0.00206806
0.00230979
-0.000200751
-0.000690015
-0.00134041
-0.000997008
-0.000197134
-0.000326595
-0.00060862
-0.000144691
0.000615188
0.000247144
-0.000136822
0.00137016
0.00188643
0.000777812
0.00122027
0.00242989
0.00228202
0.00164135
0.00168758
0.00200181
-0.000220254
-0.000666108
-0.00129662
-0.000986771
-0.00023682
-0.000333813
-0.000580895
-0.000170922
0.000564684
0.000254673
-0.000180553
0.00121193
0.00183386
0.000737697
0.000969964
0.0021965
0.0021738
0.00141003
0.00130537
0.0016655
-0.00024144
-0.000641757
-0.0012488
-0.000978026
-0.000276288
-0.000343183
-0.000556265
-0.000195794
0.000507605
0.000255037
-0.000221599
0.00104521
0.00176177
0.000710129
0.000728061
0.00192831
0.00205467
0.00121691
0.000934205
0.00130032
-0.000264005
-0.000617716
-0.00119661
-0.000969594
-0.000316237
-0.000355432
-0.000536267
-0.000220144
0.000445389
0.000247898
-0.000259034
0.000873266
0.00166841
0.000690938
0.000501267
0.0016291
0.00191189
0.00105935
0.000588719
0.000910922
-0.000287345
-0.000594819
-0.00114037
-0.000960416
-0.000356975
-0.000371293
-0.00052269
-0.00024477
0.000379466
0.000233361
-0.000292532
0.000698821
0.00155275
0.000674953
0.000295075
0.00130601
0.00173509
0.00092858
0.000282461
0.000508668
-0.000310548
-0.000573693
-0.00108118
-0.000949495
-0.000398459
-0.000390995
-0.000517029
-0.000271948
0.000310541
0.000212698
-0.000321454
0.000524647
0.00141471
0.000656322
0.00011313
0.00096818
0.00151828
0.000811356
2.39186e-05
0.000110518
-0.000333021
-0.000554603
-0.00102033
-0.000935874
-0.000440163
-0.000414664
-0.000520137
-0.000305437
0.000237965
0.000187903
-0.000344769
0.000353653
0.00125554
0.000629614
-4.24109e-05
0.000626051
0.00126008
0.000692613
-0.000186072
-0.000265057
-0.000354434
-0.000537317
-0.000959198
-0.00091878
-0.000480841
-0.000442332
-0.000533493
-0.000349412
0.000160048
0.000160594
-0.000361989
0.000188604
0.00107704
0.000589307
-0.000171813
0.000290748
0.000963417
0.000558404
-0.000353807
-0.000601889
-0.000374124
-0.000522073
-0.000899236
-0.000897194
-0.000520225
-0.000473358
-0.00056321
-0.000404315
8.45664e-05
0.000130619
-0.000373933
3.1646e-05
0.000881517
0.000529345
-0.000279088
-2.69808e-05
0.000635
0.000396985
-0.000490488
-0.000889319
-0.000391228
-0.000509531
-0.000841951
-0.000876711
-0.000562594
-0.000507614
-0.000587873
-0.000458677
2.26919e-06
9.10701e-05
-0.000385887
-0.000116519
0.00067223
0.000444926
-0.000370779
-0.000318299
0.000285914
0.000199934
-0.000611091
-0.00112451
-0.000405388
-0.000499939
-0.000789429
-0.000857468
-0.000606101
-0.00054298
-0.000609558
-0.000511549
-8.93441e-05
3.79547e-05
-0.000401243
-0.000255487
0.000452936
0.00033416
-0.000454641
-0.000578774
-7.09607e-05
-3.51533e-05
-0.000732096
-0.00131298
-0.000416658
-0.000493103
-0.000743178
-0.000837694
-0.000648713
-0.000580972
-0.000630172
-0.000562985
-0.000187316
-2.96333e-05
-0.000423184
-0.000383902
0.0002292
0.000198299
-0.00053744
-0.000808253
-0.000423098
-0.000303492
-0.000867016
-0.00146618
-0.0004251
-0.00048866
-0.000703747
-0.000817972
-0.000690377
-0.000622787
-0.000654191
-0.000612592
-0.000288886
-0.00011126
-0.000453882
-0.000502119
6.60544e-06
4.01881e-05
-0.000625748
-0.0010095
-0.0007608
-0.00059718
-0.00102475
-0.00159882
-0.00043081
-0.000486203
-0.000671729
-0.000799241
-0.000730236
-0.000668581
-0.000681371
-0.000660525
-0.000389867
-0.000204153
-0.000495217
-0.000613057
-0.000212401
-0.000137112
-0.000724593
-0.00118626
-0.00107609
-0.000906913
-0.00120911
-0.00172506
-0.000434056
-0.000485189
-0.000647494
-0.000782788
-0.00076761
-0.000718665
-0.000713403
-0.000705233
-0.000488543
-0.000307461
-0.000549869
-0.000719043
-0.000425178
-0.000329422
-0.000836365
-0.00134365
-0.00136369
-0.00122267
-0.00142004
-0.00185596
-0.000435261
-0.000485128
-0.000631118
-0.000770062
-0.00080195
-0.000772054
-0.000751932
-0.000749847
-0.000583676
-0.000418654
-0.000617932
-0.000820918
-0.000628642
-0.000533156
-0.000963959
-0.0014894
-0.0016232
-0.00153459
-0.00165374
-0.00199812
-0.000435086
-0.000485855
-0.000622283
-0.000761869
-0.000832759
-0.0008273
-0.000798415
-0.000797033
-0.00067506
-0.000533135
-0.000697825
-0.000922438
-0.000823187
-0.000744964
-0.00110837
-0.00162935
-0.00185514
-0.00183244
-0.00190288
-0.00215558
-0.000434474
-0.000487396
-0.000619916
-0.000758964
-0.000860282
-0.00088253
-0.000852795
-0.000849872
-0.000763704
-0.000648608
-0.000788149
-0.00102601
-0.0010097
-0.000960063
-0.00126741
-0.00176784
-0.00206213
-0.00210983
-0.00215946
-0.00233032
-0.000434393
-0.000489736
-0.00062277
-0.000761935
-0.00088563
-0.000936265
-0.000914311
-0.00091013
-0.000851599
-0.000764743
-0.000886672
-0.00113061
-0.00118728
-0.00117532
-0.00143916
-0.00190981
-0.00225009
-0.00236465
-0.00241529
-0.00251949
-0.000435643
-0.000493028
-0.000629513
-0.000771253
-0.000910701
-0.000987755
-0.000980931
-0.000978245
-0.000941242
-0.000881224
-0.000991907
-0.00123625
-0.00135488
-0.0013886
-0.00162176
-0.00205764
-0.0024244
-0.00259618
-0.00266306
-0.00271807
-0.000438783
-0.000497648
-0.000639121
-0.000786812
-0.000937759
-0.00103728
-0.00104976
-0.00105354
-0.00103476
-0.000997803
-0.00110233
-0.00134441
-0.00151264
-0.00159586
-0.00181255
-0.00221189
-0.00258948
-0.00280606
-0.00289785
-0.00292207
-0.000444159
-0.000504108
-0.000651142
-0.000808129
-0.000968648
-0.00108567
-0.00111884
-0.00113447
-0.00113305
-0.00111616
-0.0012168
-0.00145477
-0.00166167
-0.00179311
-0.00200744
-0.00237354
-0.00274951
-0.00299804
-0.0031162
-0.00312664
-0.00045201
-0.000512962
-0.000665542
-0.000834346
-0.00100429
-0.00113447
-0.00118762
-0.00121841
-0.00123485
-0.00123788
-0.00133579
-0.00156649
-0.00180267
-0.00197878
-0.00220101
-0.00254212
-0.00290822
-0.00317633
-0.00331659
-0.00332519
-0.000462532
-0.000524736
-0.000682744
-0.000864452
-0.00104486
-0.00118573
-0.00125648
-0.00130341
-0.00133874
-0.00136184
-0.00146028
-0.00168104
-0.00193592
-0.00215231
-0.00238873
-0.00271354
-0.00306761
-0.00334512
-0.00350075
-0.00351237
-0.00047593
-0.000539942
-0.000702897
-0.000897497
-0.00109007
-0.00124101
-0.00132602
-0.00138859
-0.00144338
-0.00148616
-0.00158865
-0.00180031
-0.00206376
-0.00231274
-0.00256795
-0.00288282
-0.00322623
-0.00350747
-0.00367225
-0.00368667
-0.000492448
-0.000558997
-0.000726701
-0.000933237
-0.00113932
-0.00130076
-0.00139755
-0.00147381
-0.00154724
-0.00161022
-0.00171856
-0.00192336
-0.00218924
-0.00246023
-0.002736
-0.0030473
-0.00338083
-0.00366394
-0.00383399
-0.00384941
-0.000512363
-0.000582031
-0.000754827
-0.000971998
-0.00119172
-0.00136466
-0.0014726
-0.00155979
-0.00164865
-0.0017323
-0.00184921
-0.00204796
-0.00231332
-0.0025972
-0.00288989
-0.00320437
-0.00352925
-0.00381252
-0.00398701
-0.00400227
-0.000536038
-0.000609096
-0.00078774
-0.00101438
-0.00124651
-0.00143209
-0.0015517
-0.00164793
-0.0017483
-0.00184941
-0.00197806
-0.00217309
-0.00243481
-0.00272594
-0.0030292
-0.00334982
-0.00366995
-0.00395075
-0.00412981
-0.00414552
-0.000563957
-0.000640348
-0.000825424
-0.00106108
-0.00130382
-0.00150232
-0.00163416
-0.0017388
-0.00184799
-0.00196167
-0.00210143
-0.00229655
-0.00255245
-0.00284606
-0.00315544
-0.00348024
-0.00379993
-0.00407728
-0.00425956
-0.00427731
-0.000596586
-0.000676037
-0.000867735
-0.00111247
-0.00136452
-0.00157505
-0.00171954
-0.00183187
-0.0019476
-0.00207072
-0.00221835
-0.00241462
-0.0026648
-0.0029558
-0.00326852
-0.00359474
-0.00391532
-0.0041911
-0.00437446
-0.00439615
-0.000634244
-0.000716633
-0.000914683
-0.00116864
-0.00142917
-0.00165022
-0.0018075
-0.00192772
-0.00204698
-0.002176
-0.00232892
-0.00252454
-0.00276897
-0.00305395
-0.00336628
-0.00369243
-0.0040126
-0.00428921
-0.00447381
-0.00450025
-0.000677157
-0.000762291
-0.000966484
-0.00122971
-0.00149842
-0.00172821
-0.00189711
-0.00202604
-0.00214742
-0.00227761
-0.00243273
-0.0026253
-0.00286181
-0.00313845
-0.00344575
-0.00376989
-0.00408819
-0.00436613
-0.0045538
-0.00458591
-0.000725695
-0.000813365
-0.00102321
-0.00129553
-0.00157242
-0.00181021
-0.00198908
-0.00212592
-0.00224899
-0.00237685
-0.0025296
-0.0027162
-0.00294113
-0.00320563
-0.00350301
-0.0038214
-0.00413679
-0.00441525
-0.00460759
-0.0046469
-0.000780119
-0.000870097
-0.00108522
-0.00136623
-0.0016511
-0.00189646
-0.00208451
-0.00222831
-0.00235195
-0.00247516
-0.00262068
-0.00279656
-0.00300536
-0.00325136
-0.00353115
-0.00383745
-0.00414796
-0.00442748
-0.00462679
-0.0046768
-0.000840802
-0.000932744
-0.0011526
-0.00144134
-0.00173508
-0.00198806
-0.00218414
-0.00233407
-0.00245718
-0.0025737
-0.00270796
-0.00286732
-0.00305383
-0.00327278
-0.00352405
-0.0038053
-0.00410089
-0.00437994
-0.00459144
-0.00466222
-0.000908281
-0.00100282
-0.0012249
-0.00152048
-0.00182387
-0.00208559
-0.00229041
-0.00244627
-0.00256785
-0.00267413
-0.00279158
-0.00292801
-0.00308481
-0.00326832
-0.00348031
-0.00371911
-0.00397863
-0.00423631
-0.00444678
-0.00454448
-0.000981614
-0.00107776
-0.00130312
-0.00160587
-0.001918
-0.00218859
-0.00240334
-0.00256863
-0.00269342
-0.00278738
-0.00287687
-0.00297613
-0.00308801
-0.00322665
-0.00339513
-0.00358911
-0.00380407
-0.00401772
-0.00419155
-0.00426362
-0.00105963
-0.00115718
-0.00138884
-0.00169765
-0.00201651
-0.00229613
-0.00252286
-0.00270196
-0.00284052
-0.00293996
-0.00300648
-0.00303581
-0.00302986
-0.00302097
-0.00305524
-0.00316868
-0.00338135
-0.00367808
-0.00399855
-0.00424831
-0.00114455
-0.00124732
-0.00148172
-0.00179179
-0.00211364
-0.00240096
-0.00264207
-0.00284206
-0.00300347
-0.00313592
-0.00326715
-0.00338662
-0.003405
-0.00323
-0.00291635
-0.00260537
-0.00235348
-0.00216855
-0.00205385
-0.00204479
-0.00123901
-0.00134885
-0.00158353
-0.0018907
-0.00221066
-0.00249919
-0.00274842
-0.002968
-0.00315414
-0.00326721
-0.00323297
-0.00304055
-0.00280481
-0.00262248
-0.00251635
-0.00247966
-0.00248046
-0.00249271
-0.00252026
-0.00260278
-0.0013427
-0.00144121
-0.00168343
-0.00200284
-0.00234755
-0.0026741
-0.00294144
-0.00309117
-0.00308904
-0.00300146
-0.00291733
-0.00286093
-0.0028195
-0.00277898
-0.0026862
-0.00253076
-0.00232354
-0.00209422
-0.00190504
-0.00183907
-0.00148256
-0.00157981
-0.00174909
-0.00198788
-0.00227118
-0.00254787
-0.00276473
-0.00289405
-0.00295398
-0.00295924
-0.00294914
-0.00295062
-0.0029574
-0.00300922
-0.00310802
-0.00321797
-0.00331536
-0.00335176
-0.00328653
-0.00311644
-0.00161146
-0.0017371
-0.00189151
-0.00209277
-0.0023351
-0.00257727
-0.00277752
-0.00290748
-0.00298297
-0.00300779
-0.00297616
-0.00292688
-0.00284759
-0.00272793
-0.00258125
-0.00239797
-0.00219723
-0.00201206
-0.00190283
-0.00194266
-0.00163266
-0.00175541
-0.00196869
-0.00222914
-0.00247938
-0.00267817
-0.00280892
-0.00286261
-0.00286972
-0.00286468
-0.00283225
-0.00279786
-0.00277757
-0.00274784
-0.00271906
-0.00268344
-0.00263525
-0.00258822
-0.00257443
-0.00266313
0.0246569
0.0162386
0.00570635
-0.00158632
-0.00409469
-0.00379632
-0.00324005
-0.00329197
-0.00373507
-0.00412829
-0.00428933
-0.00432003
-0.00436805
-0.00447742
-0.00466052
-0.00492004
-0.00513296
-0.00519246
-0.0052155
-0.00535211
-0.00558261
-0.00581636
-0.00600199
-0.00615124
-0.0063327
-0.00658309
-0.00685029
-0.00706778
-0.00723468
-0.00739534
-0.00756593
-0.00772315
-0.00785988
-0.00800794
-0.00818758
-0.00837397
-0.00854701
-0.00873022
-0.00895134
-0.00919057
-0.0094107
-0.00961216
-0.00982109
-0.0100363
-0.0102333
-0.0104161
-0.0106142
-0.0108255
-0.0110274
-0.0112308
-0.0114636
-0.0117039
-0.0119273
-0.0121615
-0.0124042
-0.0126281
-0.0128553
-0.0130972
-0.0133376
-0.0135863
-0.0138497
-0.0141086
-0.0143631
-0.0146194
-0.0148777
-0.0151409
-0.0154165
-0.0156993
-0.0159803
-0.0162613
-0.016545
-0.0168316
-0.0171244
-0.0174238
-0.0177295
-0.0180386
-0.0183497
-0.0186625
-0.0189816
-0.0193071
-0.0196394
-0.0199765
-0.0203191
-0.0206657
-0.0210178
-0.0213744
-0.0217378
-0.022107
-0.0224839
-0.0228639
-0.0232515
-0.0236429
-0.0240429
-0.024446
-0.0248591
-0.0252717
-0.025704
-0.0261304
-0.0265364
-0.0269851
0.0232209
0.0160642
0.00579341
-0.00145656
-0.00401044
-0.0037512
-0.00321141
-0.00327381
-0.00372345
-0.00412016
-0.00428288
-0.00431431
-0.00436266
-0.00447222
-0.00465559
-0.00491576
-0.00512947
-0.00518935
-0.00521243
-0.00534922
-0.00558006
-0.00581414
-0.00600004
-0.00614939
-0.00633089
-0.0065814
-0.00684878
-0.0070664
-0.00723337
-0.00739406
-0.00756473
-0.00772203
-0.00785882
-0.00800692
-0.00818661
-0.00837308
-0.00854616
-0.00872939
-0.00895054
-0.00918983
-0.00941001
-0.0096115
-0.00982045
-0.0100357
-0.0102327
-0.0104156
-0.0106137
-0.010825
-0.011027
-0.0112303
-0.0114631
-0.0117035
-0.0119269
-0.0121611
-0.0124039
-0.0126278
-0.012855
-0.0130969
-0.0133373
-0.013586
-0.0138495
-0.0141083
-0.0143629
-0.0146191
-0.0148775
-0.0151407
-0.0154163
-0.0156991
-0.0159801
-0.0162611
-0.0165448
-0.0168315
-0.0171242
-0.0174236
-0.0177293
-0.0180384
-0.0183496
-0.0186624
-0.0189814
-0.019307
-0.0196392
-0.0199764
-0.020319
-0.0206656
-0.0210177
-0.0213743
-0.0217377
-0.0221069
-0.0224838
-0.0228638
-0.0232515
-0.0236428
-0.0240428
-0.0244459
-0.0248591
-0.0252716
-0.025704
-0.0261303
-0.0265364
-0.026985
0.0220872
0.0159704
0.00600002
-0.00121108
-0.00387542
-0.00370047
-0.00318355
-0.00325052
-0.00370495
-0.00410653
-0.00427312
-0.00430744
-0.00435767
-0.00446796
-0.00465129
-0.00491156
-0.00512578
-0.00518609
-0.00520944
-0.00534651
-0.00557763
-0.00581197
-0.00599812
-0.00614764
-0.00632925
-0.00657992
-0.00684748
-0.00706521
-0.00723222
-0.00739295
-0.00756368
-0.00772104
-0.00785786
-0.00800599
-0.00818576
-0.0083723
-0.00854539
-0.00872863
-0.00894983
-0.0091892
-0.00940943
-0.00961092
-0.00981989
-0.0100352
-0.0102322
-0.0104151
-0.0106132
-0.0108246
-0.0110266
-0.0112299
-0.0114627
-0.0117031
-0.0119266
-0.0121608
-0.0124036
-0.0126275
-0.0128547
-0.0130966
-0.0133371
-0.0135857
-0.0138492
-0.0141081
-0.0143627
-0.0146189
-0.0148773
-0.0151405
-0.0154161
-0.0156989
-0.0159799
-0.016261
-0.0165446
-0.0168313
-0.0171241
-0.0174235
-0.0177292
-0.0180383
-0.0183494
-0.0186622
-0.0189813
-0.0193069
-0.0196391
-0.0199763
-0.0203189
-0.0206655
-0.0210176
-0.0213742
-0.0217376
-0.0221068
-0.0224838
-0.0228637
-0.0232514
-0.0236427
-0.0240427
-0.0244458
-0.024859
-0.0252715
-0.0257039
-0.0261303
-0.0265363
-0.026985
0.0210467
0.0158445
0.00623743
-0.000915639
-0.00370138
-0.00363525
-0.00314549
-0.00321527
-0.00367462
-0.00408249
-0.00425535
-0.00429575
-0.00435087
-0.0044637
-0.00464706
-0.00490639
-0.00512044
-0.00518167
-0.00520613
-0.0053437
-0.00557468
-0.00580894
-0.0059954
-0.00614541
-0.00632739
-0.00657826
-0.00684597
-0.00706388
-0.00723103
-0.00739183
-0.00756257
-0.00771995
-0.0078568
-0.00800499
-0.00818483
-0.00837143
-0.00854455
-0.00872782
-0.00894909
-0.00918854
-0.00940881
-0.00961031
-0.00981932
-0.0100346
-0.0102317
-0.0104146
-0.0106128
-0.0108241
-0.0110262
-0.0112295
-0.0114623
-0.0117028
-0.0119262
-0.0121604
-0.0124033
-0.0126272
-0.0128544
-0.0130963
-0.0133368
-0.0135855
-0.013849
-0.0141079
-0.0143625
-0.0146187
-0.0148771
-0.0151403
-0.0154159
-0.0156988
-0.0159798
-0.0162608
-0.0165445
-0.0168311
-0.0171239
-0.0174233
-0.017729
-0.0180381
-0.0183493
-0.0186621
-0.0189812
-0.0193067
-0.019639
-0.0199761
-0.0203188
-0.0206654
-0.0210175
-0.0213741
-0.0217375
-0.0221067
-0.0224837
-0.0228636
-0.0232513
-0.0236426
-0.0240426
-0.0244458
-0.0248589
-0.0252715
-0.0257038
-0.0261302
-0.0265363
-0.0269851
0.0199911
0.0156428
0.00646754
-0.00060669
-0.00351199
-0.00356327
-0.00310279
-0.00317175
-0.00363346
-0.00404727
-0.00422775
-0.00427692
-0.0043402
-0.00445821
-0.00464237
-0.00489963
-0.0051125
-0.00517532
-0.00520237
-0.00534098
-0.00557124
-0.00580464
-0.0059913
-0.00614224
-0.00632493
-0.00657599
-0.00684378
-0.00706204
-0.00722964
-0.00739062
-0.00756129
-0.00771862
-0.00785557
-0.00800385
-0.00818372
-0.00837034
-0.00854352
-0.00872687
-0.00894822
-0.00918774
-0.00940807
-0.00960963
-0.00981866
-0.010034
-0.0102311
-0.010414
-0.0106122
-0.0108236
-0.0110257
-0.011229
-0.0114619
-0.0117024
-0.0119258
-0.01216
-0.012403
-0.0126268
-0.0128541
-0.013096
-0.0133365
-0.0135852
-0.0138487
-0.0141076
-0.0143622
-0.0146185
-0.0148768
-0.0151401
-0.0154156
-0.0156986
-0.0159796
-0.0162606
-0.0165443
-0.016831
-0.0171237
-0.0174232
-0.0177289
-0.018038
-0.0183492
-0.018662
-0.0189811
-0.0193066
-0.0196389
-0.019976
-0.0203187
-0.0206653
-0.0210174
-0.021374
-0.0217374
-0.0221066
-0.0224836
-0.0228635
-0.0232512
-0.0236425
-0.0240425
-0.0244457
-0.0248588
-0.0252714
-0.0257037
-0.0261302
-0.0265363
-0.0269851
0.0189274
0.0153733
0.00669114
-0.000288149
-0.00331186
-0.00348768
-0.00306036
-0.00312599
-0.00358718
-0.00400546
-0.00419322
-0.00425207
-0.0043254
-0.00445066
-0.00463649
-0.00489092
-0.00510179
-0.00516694
-0.00519813
-0.00533851
-0.00556755
-0.00579926
-0.00598589
-0.00613813
-0.00632177
-0.00657275
-0.00684036
-0.00705923
-0.00722781
-0.00738922
-0.00755974
-0.007717
-0.00785418
-0.00800266
-0.00818244
-0.00836894
-0.00854219
-0.0087257
-0.00894714
-0.00918672
-0.00940715
-0.00960882
-0.0098179
-0.0100332
-0.0102304
-0.0104133
-0.0106115
-0.010823
-0.0110251
-0.0112284
-0.0114614
-0.0117019
-0.0119254
-0.0121596
-0.0124026
-0.0126265
-0.0128537
-0.0130957
-0.0133362
-0.0135848
-0.0138484
-0.0141074
-0.0143619
-0.0146182
-0.0148766
-0.0151398
-0.0154154
-0.0156983
-0.0159794
-0.0162604
-0.0165441
-0.0168308
-0.0171235
-0.017423
-0.0177287
-0.0180378
-0.018349
-0.0186618
-0.0189809
-0.0193065
-0.0196387
-0.0199759
-0.0203185
-0.0206651
-0.0210173
-0.0213739
-0.0217373
-0.0221065
-0.0224835
-0.0228634
-0.0232511
-0.0236424
-0.0240424
-0.0244456
-0.0248588
-0.0252713
-0.0257037
-0.0261301
-0.0265362
-0.0269853
0.0178747
0.0150494
0.00690832
3.8316e-05
-0.00310163
-0.00340854
-0.00301923
-0.00308009
-0.00353859
-0.00396049
-0.00415512
-0.00422357
-0.00430751
-0.00444098
-0.00462905
-0.00488035
-0.00508888
-0.00515698
-0.00519349
-0.00533622
-0.00556372
-0.00579318
-0.00597966
-0.00613353
-0.0063182
-0.00656852
-0.00683539
-0.007055
-0.00722517
-0.00738741
-0.00755778
-0.00771497
-0.00785264
-0.00800148
-0.00818108
-0.00836729
-0.00854059
-0.00872429
-0.00894576
-0.00918532
-0.00940592
-0.00960783
-0.00981698
-0.0100323
-0.0102295
-0.0104125
-0.0106108
-0.0108222
-0.0110243
-0.0112278
-0.0114607
-0.0117013
-0.0119248
-0.0121591
-0.0124021
-0.012626
-0.0128532
-0.0130952
-0.0133357
-0.0135844
-0.0138481
-0.014107
-0.0143616
-0.0146179
-0.0148763
-0.0151395
-0.0154151
-0.0156981
-0.0159791
-0.0162602
-0.0165439
-0.0168306
-0.0171233
-0.0174228
-0.0177285
-0.0180376
-0.0183488
-0.0186616
-0.0189807
-0.0193063
-0.0196386
-0.0199758
-0.0203184
-0.020665
-0.0210172
-0.0213738
-0.0217371
-0.0221064
-0.0224834
-0.0228633
-0.023251
-0.0236423
-0.0240423
-0.0244455
-0.0248587
-0.0252712
-0.0257036
-0.0261301
-0.0265362
-0.0269854
0.0168493
0.0146758
0.00711063
0.000368067
-0.00288158
-0.00332447
-0.00297894
-0.00303444
-0.00348829
-0.00391338
-0.00411491
-0.00419289
-0.00428746
-0.00442949
-0.00462017
-0.00486834
-0.0050745
-0.005146
-0.00518852
-0.00533391
-0.0055597
-0.00578666
-0.00597311
-0.00612902
-0.00631471
-0.00656371
-0.00682905
-0.00704924
-0.00722142
-0.00738488
-0.00755519
-0.00771242
-0.00785085
-0.00800032
-0.00817973
-0.00836553
-0.00853886
-0.00872273
-0.00894406
-0.00918345
-0.00940426
-0.00960654
-0.00981582
-0.0100311
-0.0102285
-0.0104117
-0.0106099
-0.0108212
-0.0110234
-0.0112269
-0.0114599
-0.0117005
-0.0119242
-0.0121585
-0.0124015
-0.0126254
-0.0128527
-0.0130947
-0.0133352
-0.013584
-0.0138476
-0.0141066
-0.0143612
-0.0146175
-0.0148759
-0.0151392
-0.0154148
-0.0156978
-0.0159788
-0.0162599
-0.0165436
-0.0168303
-0.0171231
-0.0174225
-0.0177283
-0.0180374
-0.0183486
-0.0186615
-0.0189805
-0.0193061
-0.0196384
-0.0199756
-0.0203182
-0.0206649
-0.021017
-0.0213736
-0.021737
-0.0221063
-0.0224832
-0.0228632
-0.0232509
-0.0236422
-0.0240422
-0.0244454
-0.0248586
-0.0252711
-0.0257035
-0.02613
-0.0265362
-0.0269857
0.0158627
0.014253
0.00728823
0.000697794
-0.00265013
-0.00323282
-0.00293845
-0.00298932
-0.00343663
-0.0038644
-0.00407306
-0.00416058
-0.00426572
-0.00441651
-0.00461015
-0.00485534
-0.00505914
-0.00513428
-0.00518319
-0.00533142
-0.00555541
-0.0057798
-0.00596644
-0.00612478
-0.00631161
-0.00655879
-0.00682187
-0.00704225
-0.00721655
-0.00738149
-0.00755187
-0.00770926
-0.00784873
-0.00799906
-0.00817836
-0.00836376
-0.00853719
-0.00872121
-0.00894218
-0.00918114
-0.00940211
-0.00960486
-0.00981432
-0.0100296
-0.0102272
-0.0104107
-0.0106089
-0.0108201
-0.0110223
-0.011226
-0.011459
-0.0116996
-0.0119233
-0.0121578
-0.0124008
-0.0126248
-0.012852
-0.0130941
-0.0133346
-0.0135834
-0.0138471
-0.0141061
-0.0143608
-0.0146171
-0.0148755
-0.0151388
-0.0154144
-0.0156974
-0.0159785
-0.0162596
-0.0165433
-0.01683
-0.0171228
-0.0174223
-0.017728
-0.0180372
-0.0183484
-0.0186612
-0.0189803
-0.0193059
-0.0196382
-0.0199754
-0.020318
-0.0206647
-0.0210168
-0.0213735
-0.0217368
-0.0221061
-0.0224831
-0.0228631
-0.0232507