/*--------------------------------*- C++ -*----------------------------------*\
| =========                 |                                                 |
| \\      /  F ield         | OpenFOAM: The Open Source CFD Toolbox           |
|  \\    /   O peration     | Version:  3.0.1                                 |
|   \\  /    A nd           | Web:      www.OpenFOAM.org                      |
|    \\/     M anipulation  |                                                 |
\*---------------------------------------------------------------------------*/
FoamFile
{
    version     2.0;
    format      ascii;
    class       surfaceScalarField;
    location    "2.6";
    object      phi;
}
// * * * * * * * * * * * * * * * * * * * * * * * * * * * * * * * * * * * * * //

dimensions      [0 3 -1 0 0 0 0];

internalField   nonuniform List<scalar> 
19000
(
1.16859e-06
3.44477e-07
1.13691e-06
-4.28607e-07
1.20103e-06
-4.18558e-07
1.20707e-06
4.60318e-07
1.12631e-06
5.74834e-07
1.11682e-06
-5.99467e-08
1.17329e-06
-1.00644e-07
1.13866e-06
-8.09602e-07
1.17492e-06
-1.45316e-07
1.166e-06
7.30611e-09
1.15625e-06
4.71533e-08
1.16532e-06
5.04107e-07
1.13757e-06
3.80947e-07
1.13171e-06
3.58838e-07
1.13282e-06
1.00646e-07
1.12246e-06
-4.3195e-08
1.13382e-06
3.20137e-08
1.11389e-06
-2.37902e-07
1.12756e-06
-8.71853e-09
-2.85306e-07
1.06484e-06
1.22169e-06
3.47047e-07
1.1899e-06
-3.96813e-07
1.2567e-06
-4.85357e-07
1.26773e-06
4.49281e-07
1.18215e-06
6.60423e-07
1.17329e-06
-5.10934e-08
1.22605e-06
-1.53399e-07
1.19227e-06
-7.75828e-07
1.22775e-06
-1.80791e-07
1.22448e-06
1.05688e-08
1.20764e-06
6.3997e-08
1.22771e-06
4.84036e-07
1.19092e-06
4.1774e-07
1.19511e-06
3.54651e-07
1.18426e-06
1.11495e-07
1.18864e-06
-4.75798e-08
1.18217e-06
3.84863e-08
1.18428e-06
-2.4001e-07
1.17093e-06
4.63068e-09
-2.67497e-07
1.15312e-06
1.2772e-06
3.52627e-07
1.24821e-06
-3.67824e-07
1.31029e-06
-5.47438e-07
1.33123e-06
4.28344e-07
1.24608e-06
7.45576e-07
1.23553e-06
-4.05481e-08
1.28115e-06
-1.99012e-07
1.25526e-06
-7.49944e-07
1.28113e-06
-2.06662e-07
1.28844e-06
3.2614e-09
1.26222e-06
9.02149e-08
1.28471e-06
4.61546e-07
1.25027e-06
4.5218e-07
1.25322e-06
3.51703e-07
1.24376e-06
1.20957e-07
1.24789e-06
-5.17127e-08
1.2462e-06
4.01723e-08
1.24591e-06
-2.39711e-07
1.24307e-06
7.46891e-09
-2.46628e-07
1.2222e-06
1.3363e-06
3.60428e-07
1.31268e-06
-3.44201e-07
1.36338e-06
-5.98139e-07
1.39327e-06
3.9845e-07
1.31719e-06
8.21664e-07
1.30388e-06
-2.72468e-08
1.33929e-06
-2.34421e-07
1.32495e-06
-7.35602e-07
1.3388e-06
-2.20507e-07
1.35297e-06
-1.09137e-08
1.32256e-06
1.20628e-07
1.33559e-06
4.48511e-07
1.31503e-06
4.72742e-07
1.31355e-06
3.53189e-07
1.30881e-06
1.25698e-07
1.3111e-06
-5.40058e-08
1.31265e-06
3.86244e-08
1.31058e-06
-2.3764e-07
1.31056e-06
7.4891e-09
-2.23637e-07
1.28757e-06
1.39999e-06
3.68791e-07
1.38257e-06
-3.26782e-07
1.41733e-06
-6.32891e-07
1.45218e-06
3.63599e-07
1.3939e-06
8.7994e-07
1.37756e-06
-1.09013e-08
1.4016e-06
-2.58469e-07
1.39726e-06
-7.31256e-07
1.40177e-06
-2.25021e-07
1.41613e-06
-2.52758e-08
1.38875e-06
1.48013e-07
1.39027e-06
4.4699e-07
1.38255e-06
4.80457e-07
1.38172e-06
3.54027e-07
1.37881e-06
1.286e-07
1.38061e-06
-5.58052e-08
1.38276e-06
3.64775e-08
1.37903e-06
-2.33906e-07
1.38025e-06
6.26299e-09
-1.99183e-07
1.3558e-06
1.46878e-06
3.75687e-07
1.45654e-06
-3.14538e-07
1.47422e-06
-6.50572e-07
1.50938e-06
3.28435e-07
1.47385e-06
9.15471e-07
1.4555e-06
7.45384e-09
1.4688e-06
-2.71773e-07
1.46983e-06
-7.32284e-07
1.46909e-06
-2.24288e-07
1.47984e-06
-3.60249e-08
1.45836e-06
1.69493e-07
1.45358e-06
4.51775e-07
1.45322e-06
4.80821e-07
1.45583e-06
3.51414e-07
1.45386e-06
1.30569e-07
1.45487e-06
-5.68152e-08
1.45693e-06
3.44153e-08
1.45079e-06
-2.27769e-07
1.45307e-06
3.98255e-09
-1.73498e-07
1.42739e-06
1.5424e-06
3.79507e-07
1.53344e-06
-3.05584e-07
1.53616e-06
-6.5329e-07
1.56825e-06
2.96346e-07
1.55474e-06
9.28981e-07
1.53661e-06
2.55852e-08
1.54093e-06
-2.76101e-07
1.54253e-06
-7.33878e-07
1.53927e-06
-2.21029e-07
1.54628e-06
-4.30313e-08
1.53012e-06
1.85649e-07
1.52448e-06
4.57418e-07
1.52815e-06
4.77148e-07
1.5338e-06
3.45763e-07
1.53273e-06
1.3164e-07
1.53273e-06
-5.68197e-08
1.53439e-06
3.27626e-08
1.52548e-06
-2.18859e-07
1.52842e-06
1.03683e-09
-1.47028e-07
1.50195e-06
1.61995e-06
3.79686e-07
1.61269e-06
-2.98327e-07
1.60439e-06
-6.44989e-07
1.6319e-06
2.68832e-07
1.63546e-06
9.25427e-07
1.61988e-06
4.11669e-08
1.61754e-06
-2.73764e-07
1.61646e-06
-7.32802e-07
1.61172e-06
-2.16282e-07
1.6164e-06
-4.77134e-08
1.60453e-06
1.9752e-07
1.60095e-06
4.60999e-07
1.60748e-06
4.70614e-07
1.61498e-06
3.38261e-07
1.61446e-06
1.32163e-07
1.6134e-06
-5.57607e-08
1.61471e-06
3.14569e-08
1.60304e-06
-2.07192e-07
1.60628e-06
-2.19866e-09
-1.20344e-07
1.57959e-06
1.70054e-06
3.76725e-07
1.69419e-06
-2.91985e-07
1.67905e-06
-6.29841e-07
1.70191e-06
2.45967e-07
1.71632e-06
9.11019e-07
1.70466e-06
5.28259e-08
1.69799e-06
-2.67099e-07
1.693e-06
-7.27811e-07
1.68694e-06
-2.1022e-07
1.69042e-06
-5.11874e-08
1.68243e-06
2.05508e-07
1.68187e-06
4.61556e-07
1.69072e-06
4.61768e-07
1.69906e-06
3.29917e-07
1.69869e-06
1.32536e-07
1.6964e-06
-5.34738e-08
1.69763e-06
3.02296e-08
1.68356e-06
-1.93123e-07
1.6868e-06
-5.4407e-09
-9.40988e-08
1.66056e-06
1.78376e-06
3.71684e-07
1.7782e-06
-2.8642e-07
1.75955e-06
-6.11195e-07
1.77833e-06
2.27189e-07
1.79841e-06
8.90943e-07
1.79087e-06
6.03588e-08
1.78184e-06
-2.58069e-07
1.77317e-06
-7.1914e-07
1.76585e-06
-2.02901e-07
1.76844e-06
-5.37743e-08
1.76414e-06
2.09807e-07
1.76657e-06
4.59128e-07
1.77723e-06
4.51107e-07
1.78567e-06
3.21478e-07
1.78529e-06
1.32918e-07
1.78164e-06
-4.98262e-08
1.78301e-06
2.88575e-08
1.76712e-06
-1.77235e-07
1.77014e-06
-8.4544e-09
-6.8993e-08
1.74503e-06
1.86984e-06
3.6559e-07
1.86515e-06
-2.81723e-07
1.84518e-06
-5.91231e-07
1.86055e-06
2.11818e-07
1.88293e-06
8.68564e-07
1.87896e-06
6.43262e-08
1.86896e-06
-2.48071e-07
1.85749e-06
-7.07662e-07
1.84918e-06
-1.94593e-07
1.85075e-06
-5.5345e-08
1.8497e-06
2.10853e-07
1.85456e-06
4.54276e-07
1.86657e-06
4.39091e-07
1.87463e-06
3.13418e-07
1.87432e-06
1.33233e-07
1.86935e-06
-4.48559e-08
1.87096e-06
2.72448e-08
1.85392e-06
-1.60197e-07
1.85645e-06
-1.09808e-08
-4.57032e-08
1.83316e-06
1.95932e-06
3.59113e-07
1.9555e-06
-2.77903e-07
1.93535e-06
-5.71081e-07
1.94798e-06
1.99187e-07
1.9709e-06
8.4564e-07
1.96965e-06
6.5577e-08
1.95953e-06
-2.37951e-07
1.94611e-06
-6.94246e-07
1.93726e-06
-1.85737e-07
1.93765e-06
-5.57354e-08
1.93919e-06
2.0931e-07
1.94567e-06
4.47794e-07
1.95869e-06
4.26078e-07
1.96615e-06
3.05957e-07
1.96608e-06
1.33303e-07
1.95999e-06
-3.87708e-08
1.96179e-06
2.54486e-08
1.94425e-06
-1.42657e-07
1.94598e-06
-1.27099e-08
-2.4792e-08
1.92507e-06
2.05276e-06
3.52546e-07
2.04966e-06
-2.74802e-07
2.02974e-06
-5.51164e-07
2.0403e-06
1.88625e-07
2.06308e-06
8.22856e-07
2.0637e-06
6.49649e-08
2.05389e-06
-2.28141e-07
2.03911e-06
-6.79471e-07
2.03016e-06
-1.7679e-07
2.02933e-06
-5.49031e-08
2.03282e-06
2.05821e-07
2.04015e-06
4.4046e-07
2.05392e-06
4.12309e-07
2.06075e-06
2.99133e-07
2.06106e-06
1.32991e-07
2.05417e-06
-3.18846e-08
2.05594e-06
2.36853e-08
2.03847e-06
-1.25195e-07
2.03912e-06
-1.33505e-08
-6.5937e-09
2.02092e-06
2.15061e-06
3.45937e-07
2.14796e-06
-2.72149e-07
2.12831e-06
-5.3152e-07
2.13747e-06
1.79472e-07
2.16001e-06
8.00308e-07
2.16174e-06
6.32346e-08
2.15242e-06
-2.18816e-07
2.13657e-06
-6.63621e-07
2.12789e-06
-1.68108e-07
2.12588e-06
-5.2893e-08
2.13085e-06
2.0085e-07
2.13844e-06
4.32866e-07
2.15282e-06
3.97929e-07
2.15908e-06
2.9287e-07
2.15979e-06
1.32282e-07
2.15247e-06
-2.45648e-08
2.15386e-06
2.23013e-08
2.13697e-06
-1.08303e-07
2.13635e-06
-1.27376e-08
8.86383e-09
2.1209e-06
2.2532e-06
3.39229e-07
2.2507e-06
-2.69649e-07
2.23123e-06
-5.12056e-07
2.23956e-06
1.71148e-07
2.26204e-06
7.77827e-07
2.26429e-06
6.09868e-08
2.25549e-06
-2.10021e-07
2.23864e-06
-6.46774e-07
2.23047e-06
-1.59931e-07
2.22734e-06
-4.9765e-08
2.23353e-06
1.9466e-07
2.24103e-06
4.25368e-07
2.25591e-06
3.83044e-07
2.26178e-06
2.87005e-07
2.26275e-06
1.31313e-07
2.25538e-06
-1.71971e-08
2.256e-06
2.16813e-08
2.24003e-06
-9.23366e-08
2.23824e-06
-1.09407e-08
2.18833e-08
2.22522e-06
2.36076e-06
3.32343e-07
2.35817e-06
-2.67054e-07
2.33879e-06
-4.92683e-07
2.34671e-06
1.63235e-07
2.36937e-06
7.55166e-07
2.37168e-06
5.86733e-08
2.36342e-06
-2.01763e-07
2.34555e-06
-6.28901e-07
2.33804e-06
-1.52418e-07
2.33383e-06
-4.5562e-08
2.34111e-06
1.87381e-07
2.34836e-06
4.18123e-07
2.36362e-06
3.67776e-07
2.36932e-06
2.81309e-07
2.37031e-06
1.30325e-07
2.36325e-06
-1.01394e-08
2.3628e-06
2.21344e-08
2.34794e-06
-7.74774e-08
2.34517e-06
-8.17662e-09
3.29133e-08
2.33414e-06
2.47353e-06
3.25212e-07
2.47065e-06
-2.64176e-07
2.45133e-06
-4.73366e-07
2.45906e-06
1.55505e-07
2.48214e-06
7.32093e-07
2.4842e-06
5.66132e-08
2.4765e-06
-1.94067e-07
2.45753e-06
-6.09934e-07
2.45079e-06
-1.4568e-07
2.44555e-06
-4.03148e-08
2.45384e-06
1.79091e-07
2.46082e-06
4.11139e-07
2.47629e-06
3.5231e-07
2.4821e-06
2.75495e-07
2.48278e-06
1.29641e-07
2.47634e-06
-3.69494e-09
2.47469e-06
2.37823e-08
2.46086e-06
-6.36497e-08
2.45746e-06
-4.77388e-09
4.23882e-08
2.44799e-06
2.59172e-06
3.17786e-07
2.58843e-06
-2.6089e-07
2.56921e-06
-4.54141e-07
2.57681e-06
1.47906e-07
2.60048e-06
7.08422e-07
2.60207e-06
5.50252e-08
2.59499e-06
-1.86986e-07
2.57487e-06
-5.89817e-07
2.56898e-06
-1.39793e-07
2.56273e-06
-3.40645e-08
2.57193e-06
1.69889e-07
2.57876e-06
4.04312e-07
2.59415e-06
3.36918e-07
2.60042e-06
2.69232e-07
2.60046e-06
1.29602e-07
2.59481e-06
1.95126e-09
2.59211e-06
2.64856e-08
2.57897e-06
-5.05108e-08
2.57532e-06
-1.12573e-09
5.06161e-08
2.56709e-06
2.71558e-06
3.1003e-07
2.7118e-06
-2.57104e-07
2.69276e-06
-4.351e-07
2.70015e-06
1.40512e-07
2.72456e-06
6.84013e-07
2.72552e-06
5.4064e-08
2.71914e-06
-1.80599e-07
2.69785e-06
-5.68528e-07
2.69285e-06
-1.34791e-07
2.68567e-06
-2.68872e-08
2.69563e-06
1.59927e-07
2.70249e-06
3.97449e-07
2.71746e-06
3.21946e-07
2.7245e-06
2.62197e-07
2.72363e-06
1.30473e-07
2.7188e-06
6.78001e-09
2.71539e-06
2.98949e-08
2.70251e-06
-3.7628e-08
2.69894e-06
2.44569e-09
5.77422e-08
2.69181e-06
2.84538e-06
3.0192e-07
2.84101e-06
-2.52737e-07
2.8223e-06
-4.16385e-07
2.82935e-06
1.33462e-07
2.85461e-06
6.58753e-07
2.85482e-06
5.38476e-08
2.8492e-06
-1.74979e-07
2.82677e-06
-5.46092e-07
2.82263e-06
-1.30657e-07
2.81465e-06
-1.89089e-08
2.82515e-06
1.4943e-07
2.8323e-06
3.90302e-07
2.84648e-06
3.07762e-07
2.85455e-06
2.5413e-07
2.85265e-06
1.32371e-07
2.84846e-06
1.09706e-08
2.84482e-06
3.3536e-08
2.83184e-06
-2.46483e-08
2.82847e-06
5.81522e-09
6.37395e-08
2.82247e-06
2.98138e-06
2.9344e-07
2.97635e-06
-2.47712e-07
2.95813e-06
-3.98163e-07
2.96467e-06
1.26924e-07
2.99087e-06
6.32551e-07
2.99025e-06
5.44648e-08
2.98544e-06
-1.70168e-07
2.96193e-06
-5.22585e-07
2.95858e-06
-1.27309e-07
2.95e-06
-1.03206e-08
2.96075e-06
1.38681e-07
2.96846e-06
3.82583e-07
2.98151e-06
2.9472e-07
2.99076e-06
2.44879e-07
2.98791e-06
1.35217e-07
2.98398e-06
1.48998e-08
2.98061e-06
3.69115e-08
2.96741e-06
-1.14497e-08
2.96408e-06
9.14795e-09
6.84312e-08
2.95938e-06
3.12387e-06
2.84577e-07
3.1181e-06
-2.41945e-07
3.10055e-06
-3.80612e-07
3.10641e-06
1.21061e-07
3.13363e-06
6.05339e-07
3.13212e-06
5.59713e-08
3.12811e-06
-1.66159e-07
3.10367e-06
-4.9814e-07
3.10096e-06
-1.246e-07
3.09201e-06
-1.37764e-09
3.10269e-06
1.28009e-07
3.11127e-06
3.74003e-07
3.12289e-06
2.83094e-07
3.13332e-06
2.34448e-07
3.12979e-06
1.38752e-07
3.12564e-06
1.905e-08
3.12293e-06
3.96191e-08
3.10964e-06
1.83562e-09
3.10598e-06
1.28144e-08
7.16136e-08
3.1028e-06
3.27317e-06
2.7532e-07
3.26657e-06
-2.35352e-07
3.24987e-06
-3.63904e-07
3.25491e-06
1.16012e-07
3.28317e-06
5.7708e-07
3.28077e-06
5.83776e-08
3.2775e-06
-1.62893e-07
3.25231e-06
-4.72953e-07
3.25002e-06
-1.22306e-07
3.24103e-06
7.60624e-09
3.25129e-06
1.17758e-07
3.26096e-06
3.64324e-07
3.27103e-06
2.73032e-07
3.28245e-06
2.23027e-07
3.27863e-06
1.42573e-07
3.27379e-06
2.38888e-08
3.27194e-06
4.14672e-08
3.25891e-06
1.48616e-08
3.25449e-06
1.72398e-08
7.31821e-08
3.25292e-06
3.42959e-06
2.65664e-07
3.42209e-06
-2.27856e-07
3.40638e-06
-3.48194e-07
3.41051e-06
1.11884e-07
3.4398e-06
5.47786e-07
3.43655e-06
6.16357e-08
3.4339e-06
-1.60247e-07
3.40823e-06
-4.47284e-07
3.40606e-06
-1.20137e-07
3.39738e-06
1.62883e-08
3.40689e-06
1.08249e-07
3.41782e-06
3.53393e-07
3.42631e-06
2.64542e-07
3.43839e-06
2.10944e-07
3.43474e-06
1.46225e-07
3.42886e-06
2.97707e-08
3.42782e-06
4.25073e-08
3.41554e-06
2.71435e-08
3.41003e-06
2.27517e-08
7.32539e-08
3.40995e-06
3.59347e-06
2.55606e-07
3.58501e-06
-2.19395e-07
3.57042e-06
-3.3361e-07
3.57357e-06
1.08743e-07
3.60382e-06
5.1753e-07
3.59983e-06
6.56278e-08
3.59762e-06
-1.58042e-07
3.5718e-06
-4.21456e-07
3.56943e-06
-1.1777e-07
3.56137e-06
2.4343e-08
3.56989e-06
9.9729e-08
3.5821e-06
3.4119e-07
3.58914e-06
2.57496e-07
3.60149e-06
1.98601e-07
3.5984e-06
1.49314e-07
3.59133e-06
3.6842e-08
3.59087e-06
4.29583e-08
3.57979e-06
3.82318e-08
3.57306e-06
2.94804e-08
7.21992e-08
3.57411e-06
3.76517e-06
2.45146e-07
3.7557e-06
-2.09925e-07
3.74233e-06
-3.20246e-07
3.74447e-06
1.06603e-07
3.77554e-06
4.86464e-07
3.77101e-06
7.01592e-08
3.769e-06
-1.56034e-07
3.7434e-06
-3.95859e-07
3.74048e-06
-1.14852e-07
3.73333e-06
3.14928e-08
3.74072e-06
9.23386e-08
3.75408e-06
3.27839e-07
3.75992e-06
2.51653e-07
3.77208e-06
1.86438e-07
3.7699e-06
1.51498e-07
3.76166e-06
4.50774e-08
3.76146e-06
4.3162e-08
3.75193e-06
4.77546e-08
3.74409e-06
3.73277e-08
7.06405e-08
3.74565e-06
3.94504e-06
2.34291e-07
3.93455e-06
-1.99431e-07
3.92245e-06
-3.08151e-07
3.92364e-06
1.0542e-07
3.95528e-06
4.54816e-07
3.95049e-06
7.4957e-08
3.94837e-06
-1.53919e-07
3.92343e-06
-3.70914e-07
3.91967e-06
-1.11095e-07
3.91357e-06
3.75973e-08
3.91983e-06
8.60708e-08
3.93409e-06
3.13582e-07
3.93901e-06
2.46734e-07
3.95059e-06
1.74856e-07
3.94955e-06
1.52541e-07
3.94032e-06
5.43083e-08
3.93995e-06
4.35289e-08
3.93228e-06
5.54258e-08
3.9236e-06
4.60101e-08
6.93477e-08
3.92489e-06
4.13349e-06
2.23051e-07
4.12198e-06
-1.87924e-07
4.11115e-06
-2.97321e-07
4.11149e-06
1.05084e-07
4.14342e-06
4.22889e-07
4.13869e-06
7.96825e-08
4.13611e-06
-1.51338e-07
4.11227e-06
-3.47069e-07
4.10745e-06
-1.06281e-07
4.10239e-06
4.26572e-08
4.10767e-06
8.07973e-08
4.12253e-06
2.9872e-07
4.12678e-06
2.42477e-07
4.13747e-06
1.64165e-07
4.13769e-06
1.52326e-07
4.12774e-06
6.42561e-08
4.12678e-06
4.44869e-08
4.12111e-06
6.10948e-08
4.11207e-06
5.50562e-08
6.90854e-08
4.11233e-06
4.33091e-06
2.11446e-07
4.31843e-06
-1.75452e-07
4.30881e-06
-2.87694e-07
4.30848e-06
1.05409e-07
4.34031e-06
3.9106e-07
4.33605e-06
8.39439e-08
4.33262e-06
-1.47906e-07
4.31028e-06
-3.24731e-07
4.30434e-06
-1.00344e-07
4.30016e-06
4.68401e-08
4.30464e-06
7.63183e-08
4.31984e-06
2.83524e-07
4.32361e-06
2.38701e-07
4.33321e-06
1.54567e-07
4.33465e-06
1.50886e-07
4.32436e-06
7.45461e-08
4.32245e-06
4.63936e-08
4.3187e-06
6.48437e-08
4.30994e-06
6.38237e-08
7.0398e-08
4.30862e-06
4.53771e-06
1.99511e-07
4.52436e-06
-1.621e-07
4.51581e-06
-2.79148e-07
4.51509e-06
1.06132e-07
4.54637e-06
3.59776e-07
4.54301e-06
8.7302e-08
4.53832e-06
-1.43213e-07
4.5178e-06
-3.04208e-07
4.51088e-06
-9.34262e-08
4.50728e-06
5.04423e-08
4.51116e-06
7.24337e-08
4.52648e-06
2.68204e-07
4.52989e-06
2.35297e-07
4.53826e-06
1.4619e-07
4.54084e-06
1.48309e-07
4.5306e-06
8.47837e-08
4.52751e-06
4.94891e-08
4.52533e-06
6.70201e-08
4.5176e-06
7.15572e-08
7.3436e-08
4.51456e-06
4.75433e-06
1.87292e-07
4.74023e-06
-1.47995e-07
4.73256e-06
-2.71479e-07
4.73179e-06
1.069e-07
4.76202e-06
3.2955e-07
4.76003e-06
8.92924e-08
4.75372e-06
-1.36903e-07
4.73509e-06
-2.85582e-07
4.72759e-06
-8.59212e-08
4.72423e-06
5.38019e-08
4.72764e-06
6.90179e-08
4.74294e-06
2.52906e-07
4.74605e-06
2.32183e-07
4.75308e-06
1.39166e-07
4.75672e-06
1.4467e-07
4.74689e-06
9.46126e-08
4.74252e-06
5.38577e-08
4.74143e-06
6.81048e-08
4.73529e-06
7.77002e-08
7.78214e-08
4.73091e-06
4.98124e-06
1.74855e-07
4.96655e-06
-1.33312e-07
4.95947e-06
-2.64398e-07
4.95909e-06
1.07281e-07
4.9877e-06
3.00936e-07
4.98755e-06
8.94425e-08
4.97942e-06
-1.28764e-07
4.96241e-06
-2.68577e-07
4.95493e-06
-7.84373e-08
4.95153e-06
5.71963e-08
4.9545e-06
6.60471e-08
4.96967e-06
2.37735e-07
4.97257e-06
2.29285e-07
4.9781e-06
1.3364e-07
4.98272e-06
1.40043e-07
4.97361e-06
1.0373e-07
4.96808e-06
5.93812e-08
4.96754e-06
6.86517e-08
4.96323e-06
8.20109e-08
8.27894e-08
4.95826e-06
5.21889e-06
1.62283e-07
5.20386e-06
-1.18284e-07
5.19698e-06
-2.57518e-07
5.19748e-06
1.06777e-07
5.22394e-06
2.74484e-07
5.22604e-06
8.73353e-08
5.21615e-06
-1.18869e-07
5.20022e-06
-2.52653e-07
5.19331e-06
-7.15219e-08
5.18975e-06
6.07536e-08
5.19221e-06
6.35917e-08
5.20715e-06
2.22792e-07
5.20991e-06
2.26529e-07
5.21382e-06
1.29727e-07
5.21926e-06
1.34598e-07
5.21125e-06
1.11744e-07
5.20474e-06
6.58913e-08
5.20431e-06
6.90849e-08
5.20166e-06
8.46527e-08
8.74814e-08
5.19697e-06
5.46779e-06
1.4968e-07
5.4527e-06
-1.03191e-07
5.44554e-06
-2.50363e-07
5.44747e-06
1.04846e-07
5.47133e-06
2.50627e-07
5.4758e-06
8.28663e-08
5.46471e-06
-1.07777e-07
5.44916e-06
-2.37105e-07
5.44311e-06
-6.54729e-08
5.43944e-06
6.44208e-08
5.44121e-06
6.18281e-08
5.45581e-06
2.08191e-07
5.45852e-06
2.23818e-07
5.46077e-06
1.27482e-07
5.46684e-06
1.28527e-07
5.46029e-06
1.1829e-07
5.45301e-06
7.3168e-08
5.45239e-06
6.97111e-08
5.45106e-06
8.59797e-08
9.12874e-08
5.44725e-06
5.72847e-06
1.37167e-07
5.71365e-06
-8.83654e-08
5.70562e-06
-2.42337e-07
5.7096e-06
1.0087e-07
5.73067e-06
2.29552e-07
5.73706e-06
7.64783e-08
5.72565e-06
-9.63674e-08
5.70996e-06
-2.21412e-07
5.70476e-06
-6.02812e-08
5.7011e-06
6.80853e-08
5.70196e-06
6.09715e-08
5.71605e-06
1.941e-07
5.71888e-06
2.20991e-07
5.71953e-06
1.26825e-07
5.72598e-06
1.22081e-07
5.72126e-06
1.23012e-07
5.71344e-06
8.09882e-08
5.7124e-06
7.07506e-08
5.71205e-06
8.63224e-08
9.39869e-08
5.70935e-06
6.00148e-06
1.24878e-07
5.98729e-06
-7.4171e-08
5.97769e-06
-2.32735e-07
5.98436e-06
9.41952e-08
6.00288e-06
2.11028e-07
6.0102e-06
6.91614e-08
5.99932e-06
-8.54851e-08
5.98325e-06
-2.05345e-07
5.97858e-06
-5.56126e-08
5.975e-06
7.16678e-08
5.97473e-06
6.12435e-08
5.9882e-06
1.80632e-07
5.9915e-06
2.17685e-07
5.99079e-06
1.27537e-07
5.99731e-06
1.15564e-07
5.99466e-06
1.25663e-07
5.98659e-06
8.90516e-08
5.98491e-06
7.24326e-08
5.98533e-06
8.59021e-08
9.56202e-08
5.9837e-06
6.28742e-06
1.12948e-07
6.27423e-06
-6.09873e-08
6.26249e-06
-2.20994e-07
6.27203e-06
8.46584e-08
6.28876e-06
1.94301e-07
6.29593e-06
6.19839e-08
6.28595e-06
-7.55047e-08
6.26936e-06
-1.88753e-07
6.2645e-06
-5.07498e-08
6.26095e-06
7.52173e-08
6.25969e-06
6.25062e-08
6.27275e-06
1.67571e-07
6.27704e-06
2.13391e-07
6.27531e-06
1.29265e-07
6.28146e-06
1.09423e-07
6.28098e-06
1.26135e-07
6.27309e-06
9.69447e-08
6.27052e-06
7.5002e-08
6.27152e-06
8.4901e-08
9.62703e-08
6.27087e-06
6.58692e-06
1.01501e-07
6.5751e-06
-4.91701e-08
6.56138e-06
-2.0727e-07
6.5729e-06
7.31392e-08
6.58884e-06
1.78358e-07
6.5952e-06
5.5626e-08
6.5858e-06
-6.61067e-08
6.56834e-06
-1.71293e-07
6.5629e-06
-4.53092e-08
6.55973e-06
7.83803e-08
6.5578e-06
6.4444e-08
6.57057e-06
1.54792e-07
6.57619e-06
2.07778e-07
6.57382e-06
1.31636e-07
6.57911e-06
1.04133e-07
6.58074e-06
1.24497e-07
6.57355e-06
1.04143e-07
6.56994e-06
7.86096e-08
6.57122e-06
8.36227e-08
9.59416e-08
6.57154e-06
6.90065e-06
9.06415e-08
6.89057e-06
-3.90946e-08
6.87531e-06
-1.92011e-07
6.88767e-06
6.07866e-08
6.90344e-06
1.62581e-07
6.90899e-06
5.00847e-08
6.89968e-06
-5.6803e-08
6.88145e-06
-1.53064e-07
6.87575e-06
-3.96054e-08
6.87313e-06
8.09995e-08
6.87054e-06
6.70366e-08
6.88264e-06
1.42688e-07
6.8896e-06
2.00817e-07
6.88694e-06
1.34297e-07
6.89107e-06
1.00009e-07
6.89443e-06
1.21129e-07
6.88852e-06
1.1006e-07
6.88394e-06
8.31826e-08
6.88504e-06
8.25249e-08
9.46258e-08
6.88636e-06
7.22932e-06
8.04565e-08
7.22135e-06
-3.11193e-08
7.20495e-06
-1.75617e-07
7.21721e-06
4.85324e-08
7.23298e-06
1.46804e-07
7.23803e-06
4.50388e-08
7.22887e-06
-4.76418e-08
7.21037e-06
-1.34569e-07
7.20416e-06
-3.33917e-08
7.20191e-06
8.3249e-08
7.1987e-06
7.02466e-08
7.20981e-06
1.31575e-07
7.21797e-06
1.92658e-07
7.21536e-06
1.3691e-07
7.2181e-06
9.7268e-08
7.22272e-06
1.16508e-07
7.21853e-06
1.14254e-07
7.21332e-06
8.83935e-08
7.21377e-06
8.20726e-08
9.2471e-08
7.21592e-06
7.57367e-06
7.10095e-08
7.56799e-06
-2.54317e-08
7.55096e-06
-1.58596e-07
7.56242e-06
3.70786e-08
7.57802e-06
1.31202e-07
7.58301e-06
4.00523e-08
7.57446e-06
-3.9092e-08
7.5559e-06
-1.16011e-07
7.54873e-06
-2.62216e-08
7.54656e-06
8.54199e-08
7.54297e-06
7.38324e-08
7.55291e-06
1.21634e-07
7.56199e-06
1.83585e-07
7.55975e-06
1.39148e-07
7.56104e-06
9.59719e-08
7.56635e-06
1.11206e-07
7.56412e-06
1.16483e-07
7.55879e-06
9.37235e-08
7.55829e-06
8.25663e-08
8.98545e-08
7.56091e-06
7.93449e-06
6.23346e-08
7.93089e-06
-2.18336e-08
7.91413e-06
-1.41836e-07
7.92414e-06
2.7066e-08
7.93955e-06
1.15795e-07
7.94444e-06
3.51548e-08
7.9375e-06
-3.21445e-08
7.91907e-06
-9.75849e-08
7.90994e-06
-1.70929e-08
7.90769e-06
8.76769e-08
7.90404e-06
7.74787e-08
7.91271e-06
1.12958e-07
7.9224e-06
1.73899e-07
7.92081e-06
1.40741e-07
7.92075e-06
9.603e-08
7.92616e-06
1.05796e-07
7.9259e-06
1.16741e-07
7.92101e-06
9.86162e-08
7.91956e-06
8.40118e-08
8.72995e-08
7.92212e-06
8.31256e-06
5.44558e-08
8.31055e-06
-1.98207e-08
8.29492e-06
-1.26209e-07
8.30314e-06
1.8843e-08
8.3185e-06
1.00438e-07
8.32278e-06
3.0871e-08
8.31744e-06
-2.68005e-08
8.299e-06
-7.91413e-08
8.28807e-06
-6.16991e-09
8.28613e-06
8.96196e-08
8.28266e-06
8.09509e-08
8.28998e-06
1.05635e-07
8.30001e-06
1.63868e-07
8.29925e-06
1.41499e-07
8.29808e-06
9.72049e-08
8.30308e-06
1.00791e-07
8.30462e-06
1.15202e-07
8.30063e-06
1.02606e-07
8.29848e-06
8.61671e-08
8.52684e-08
8.30051e-06
8.70871e-06
4.74029e-08
8.70814e-06
-1.92477e-08
8.69329e-06
-1.11358e-07
8.69986e-06
1.2273e-08
8.71477e-06
8.55287e-08
8.71815e-06
2.74888e-08
8.71048e-06
-1.91305e-08
8.69211e-06
-6.07669e-08
8.68374e-06
2.19512e-09
8.68294e-06
9.04228e-08
8.67965e-06
8.42436e-08
8.68553e-06
9.97542e-08
8.69566e-06
1.53734e-07
8.69589e-06
1.41275e-07
8.6939e-06
9.9188e-08
8.69807e-06
9.66283e-08
8.70108e-06
1.12192e-07
8.69833e-06
1.05349e-07
8.69584e-06
8.86602e-08
8.40028e-08
8.69711e-06
9.12384e-06
4.11856e-08
9.12472e-06
-2.01298e-08
9.10995e-06
-9.65917e-08
9.11409e-06
8.13241e-09
9.12235e-06
7.72664e-08
9.12152e-06
2.83258e-08
9.11544e-06
-1.30511e-08
9.10407e-06
-4.9403e-08
9.09874e-06
7.53338e-09
9.09893e-06
9.02321e-08
9.09578e-06
8.73918e-08
9.10028e-06
9.5257e-08
9.11019e-06
1.43819e-07
9.11155e-06
1.39919e-07
9.10913e-06
1.01603e-07
9.11216e-06
9.35981e-08
9.11618e-06
1.08177e-07
9.11489e-06
1.06634e-07
9.11243e-06
9.11185e-08
8.35037e-08
9.11293e-06
9.55888e-06
3.57638e-08
9.56049e-06
-2.17375e-08
9.5463e-06
-8.23987e-08
9.54798e-06
6.44861e-09
9.55614e-06
6.91073e-08
9.55548e-06
2.89839e-08
9.54913e-06
-6.70282e-09
9.53832e-06
-3.85871e-08
9.53391e-06
1.19405e-08
9.53475e-06
8.93911e-08
9.53191e-06
9.02309e-08
9.53514e-06
9.20264e-08
9.54455e-06
1.34409e-07
9.547e-06
1.37467e-07
9.54458e-06
1.04025e-07
9.54642e-06
9.17642e-08
9.55088e-06
1.03717e-07
9.55111e-06
1.06404e-07
9.54905e-06
9.31766e-08
8.3571e-08
9.54898e-06
1.00148e-05
3.10844e-08
1.00165e-05
-2.34007e-08
1.00037e-05
-6.96163e-08
1.00041e-05
6.07448e-09
1.0012e-05
6.12031e-08
1.00112e-05
2.97182e-08
1.00045e-05
6.93372e-11
9.99398e-06
-2.81047e-08
9.98999e-06
1.59325e-08
9.99131e-06
8.80782e-08
9.98894e-06
9.25935e-08
9.99106e-06
8.99108e-08
9.99978e-06
1.25684e-07
1.00032e-05
1.34059e-07
1.00011e-05
1.06077e-07
1.00019e-05
9.09706e-08
1.00063e-05
9.933e-08
1.00079e-05
1.04806e-07
1.00066e-05
9.45355e-08
8.39381e-08
1.00062e-05
1.04926e-05
2.70807e-08
1.04942e-05
-2.49891e-08
1.0483e-05
-5.84322e-08
1.04825e-05
6.60149e-09
1.04896e-05
5.41707e-08
1.0489e-05
3.0317e-08
1.0482e-05
7.01144e-09
1.04717e-05
-1.7791e-08
1.04679e-05
1.97221e-08
1.04697e-05
8.63202e-08
1.04679e-05
9.43697e-08
1.04691e-05
8.87197e-08
1.04769e-05
1.1783e-07
1.04811e-05
1.2987e-07
1.04797e-05
1.07509e-07
1.04797e-05
9.09596e-08
1.04836e-05
9.54043e-08
1.04863e-05
1.02155e-07
1.04858e-05
9.49942e-08
8.43316e-08
1.04854e-05
1.09934e-05
2.36741e-08
1.09948e-05
-2.63233e-08
1.09853e-05
-4.89733e-08
1.09839e-05
7.99828e-09
1.09898e-05
4.8229e-08
1.09895e-05
3.06837e-08
1.09827e-05
1.37815e-08
1.09725e-05
-7.62445e-09
1.09688e-05
2.34901e-08
1.09709e-05
8.42074e-08
1.09697e-05
9.55146e-08
1.09702e-05
8.82622e-08
1.09771e-05
1.10964e-07
1.09818e-05
1.25095e-07
1.09812e-05
1.08137e-07
1.09808e-05
9.14191e-08
1.0984e-05
9.21381e-08
1.09874e-05
9.88158e-08
1.09878e-05
9.45057e-08
8.45097e-08
1.09877e-05
1.15183e-05
2.07742e-08
1.15192e-05
-2.72664e-08
1.15113e-05
-4.10427e-08
1.15092e-05
1.01097e-08
1.15139e-05
4.34946e-08
1.15138e-05
3.07344e-08
1.15076e-05
2.00791e-08
1.14976e-05
2.29374e-09
1.14937e-05
2.74445e-08
1.1496e-05
8.18667e-08
1.14956e-05
9.59703e-08
1.14955e-05
8.82913e-08
1.15014e-05
1.051e-07
1.15065e-05
1.19989e-07
1.15067e-05
1.07909e-07
1.15061e-05
9.20235e-08
1.15087e-05
8.96125e-08
1.15123e-05
9.51521e-08
1.15137e-05
9.31452e-08
8.43085e-08
1.15139e-05
1.20683e-05
1.82982e-08
1.20686e-05
-2.75693e-08
1.2062e-05
-3.44409e-08
1.20594e-05
1.26816e-08
1.20629e-05
4.00403e-08
1.20631e-05
3.05107e-08
1.20576e-05
2.55918e-08
1.20481e-05
1.17801e-08
1.20439e-05
3.16749e-08
1.20463e-05
7.94906e-08
1.20465e-05
9.57186e-08
1.20462e-05
8.8593e-08
1.20511e-05
1.00234e-07
1.20563e-05
1.14781e-07
1.20573e-05
1.06897e-07
1.20568e-05
9.24666e-08
1.20587e-05
8.77375e-08
1.20624e-05
9.14811e-08
1.20645e-05
9.10167e-08
8.36484e-08
1.20652e-05
1.26447e-05
1.61792e-08
1.26441e-05
-2.69232e-08
1.26385e-05
-2.88297e-08
1.26359e-05
1.52832e-08
1.26381e-05
3.78019e-08
1.26385e-05
3.01254e-08
1.26339e-05
3.01236e-08
1.26251e-05
2.05963e-08
1.26206e-05
3.61634e-08
1.26228e-05
7.73339e-08
1.26237e-05
9.48276e-08
1.26233e-05
8.8955e-08
1.26273e-05
9.62799e-08
1.26324e-05
1.09632e-07
1.26342e-05
1.05166e-07
1.26341e-05
9.25607e-08
1.26355e-05
8.63282e-08
1.26389e-05
8.80742e-08
1.26416e-05
8.83004e-08
8.2498e-08
1.26427e-05
1.32488e-05
1.43616e-08
1.32469e-05
-2.5064e-08
1.32421e-05
-2.40522e-08
1.32399e-05
1.75454e-08
1.3241e-05
3.66461e-08
1.32413e-05
2.98268e-08
1.32378e-05
3.36794e-08
1.32299e-05
2.84612e-08
1.32252e-05
4.08251e-08
1.3227e-05
7.55883e-08
1.32284e-05
9.34033e-08
1.32282e-05
8.91921e-08
1.32313e-05
9.31027e-08
1.32363e-05
1.047e-07
1.32386e-05
1.02829e-07
1.32389e-05
9.22232e-08
1.32401e-05
8.51845e-08
1.32431e-05
8.50514e-08
1.32462e-05
8.52363e-08
8.0834e-08
1.32478e-05
1.38817e-05
1.27957e-08
1.3879e-05
-2.23467e-08
1.38747e-05
-1.97729e-08
1.3873e-05
1.93137e-08
1.38732e-05
3.6454e-08
1.3873e-05
2.99866e-08
1.38703e-05
3.63742e-08
1.38636e-05
3.51799e-08
1.38589e-05
4.54907e-08
1.38602e-05
7.43255e-08
1.3862e-05
9.16203e-08
1.3862e-05
8.91738e-08
1.38645e-05
9.05781e-08
1.38691e-05
1.00089e-07
1.38719e-05
1.00042e-07
1.38727e-05
9.13974e-08
1.38738e-05
8.41184e-08
1.38765e-05
8.23921e-08
1.38796e-05
8.20481e-08
7.86893e-08
1.38818e-05
1.4545e-05
1.14616e-08
1.45416e-05
-1.89419e-08
1.45377e-05
-1.58357e-08
1.45365e-05
2.04771e-08
1.4536e-05
3.69684e-08
1.45351e-05
3.08791e-08
1.4533e-05
3.84708e-08
1.45275e-05
4.06864e-08
1.45231e-05
4.99106e-08
1.45238e-05
7.35476e-08
1.45258e-05
8.96801e-08
1.45261e-05
8.88436e-08
1.45281e-05
8.85558e-08
1.45324e-05
9.58307e-08
1.45355e-05
9.6942e-08
1.45368e-05
9.00786e-08
1.4538e-05
8.2966e-08
1.45403e-05
8.00505e-08
1.45435e-05
7.88999e-08
7.61741e-08
1.4546e-05
1.524e-05
1.03571e-08
1.52364e-05
-1.53163e-08
1.52325e-05
-1.19665e-08
1.52318e-05
2.11977e-08
1.52308e-05
3.78971e-08
1.52292e-05
3.25474e-08
1.52273e-05
4.0328e-08
1.52229e-05
4.50589e-08
1.5219e-05
5.38191e-08
1.52194e-05
7.3192e-08
1.52213e-05
8.77366e-08
1.5222e-05
8.81905e-08
1.52236e-05
8.68939e-08
1.52275e-05
9.19627e-08
1.52308e-05
9.36126e-08
1.52326e-05
8.8335e-08
1.5234e-05
8.16025e-08
1.52361e-05
7.79402e-08
1.52391e-05
7.59046e-08
7.3403e-08
1.52418e-05
1.59682e-05
9.49332e-09
1.59647e-05
-1.17867e-08
1.59607e-05
-8.00351e-09
1.59602e-05
2.16807e-08
1.59591e-05
3.89695e-08
1.59568e-05
3.48568e-08
1.59549e-05
4.22733e-08
1.59515e-05
4.84702e-08
1.59482e-05
5.70836e-08
1.59483e-05
7.30876e-08
1.59502e-05
8.58846e-08
1.59511e-05
8.72453e-08
1.59526e-05
8.54447e-08
1.5956e-05
8.85502e-08
1.59595e-05
9.01308e-08
1.59616e-05
8.62153e-08
1.59632e-05
7.99857e-08
1.59652e-05
7.59001e-08
1.5968e-05
7.31347e-08
7.04825e-08
1.59709e-05
1.67312e-05
8.8848e-09
1.67278e-05
-8.41272e-09
1.67238e-05
-3.9643e-09
1.67234e-05
2.21054e-08
1.67224e-05
3.99711e-08
1.67196e-05
3.75891e-08
1.67174e-05
4.44622e-08
1.67147e-05
5.11933e-08
1.67121e-05
5.96969e-08
1.67122e-05
7.30409e-08
1.67139e-05
8.41545e-08
1.67151e-05
8.60749e-08
1.67164e-05
8.40669e-08
1.67194e-05
8.55761e-08
1.67229e-05
8.6651e-08
1.67254e-05
8.37236e-08
1.67272e-05
7.8129e-08
1.67293e-05
7.37935e-08
1.67319e-05
7.05595e-08
6.75521e-08
1.67349e-05
1.75307e-05
8.52951e-09
1.75277e-05
-5.37137e-09
1.75236e-05
1.52286e-10
1.75229e-05
2.27308e-08
1.7522e-05
4.08597e-08
1.75192e-05
4.0448e-08
1.75167e-05
4.69119e-08
1.75144e-05
5.35319e-08
1.75124e-05
6.17077e-08
1.75125e-05
7.29388e-08
1.75141e-05
8.25185e-08
1.75155e-05
8.4719e-08
1.75169e-05
8.26913e-08
1.75195e-05
8.29283e-08
1.75228e-05
8.33136e-08
1.75256e-05
8.09386e-08
1.75277e-05
7.60071e-08
1.75299e-05
7.15906e-08
1.75325e-05
6.80542e-08
6.47355e-08
1.75353e-05
1.83685e-05
8.41428e-09
1.83657e-05
-2.61435e-09
1.83617e-05
4.19173e-09
1.83607e-05
2.37276e-08
1.83599e-05
4.16749e-08
1.83571e-05
4.31836e-08
1.83545e-05
4.95352e-08
1.83523e-05
5.57075e-08
1.83508e-05
6.32469e-08
1.8351e-05
7.27354e-08
1.83526e-05
8.09203e-08
1.83541e-05
8.31981e-08
1.83555e-05
8.1276e-08
1.83579e-05
8.05194e-08
1.83611e-05
8.01363e-08
1.8364e-05
7.80198e-08
1.83664e-05
7.35958e-08
1.83687e-05
6.92782e-08
1.83713e-05
6.55267e-08
6.2036e-08
1.8374e-05
1.92463e-05
8.50702e-09
1.92438e-05
-8.37119e-11
1.92399e-05
8.06094e-09
1.92385e-05
2.51427e-08
1.92376e-05
4.25296e-08
1.92352e-05
4.56578e-08
1.92325e-05
5.21744e-08
1.92304e-05
5.78063e-08
1.92291e-05
6.4521e-08
1.92295e-05
7.2418e-08
1.92311e-05
7.9329e-08