/*--------------------------------*- C++ -*----------------------------------*\
| =========                 |                                                 |
| \\      /  F ield         | OpenFOAM: The Open Source CFD Toolbox           |
|  \\    /   O peration     | Version:  3.0.1                                 |
|   \\  /    A nd           | Web:      www.OpenFOAM.org                      |
|    \\/     M anipulation  |                                                 |
\*---------------------------------------------------------------------------*/
FoamFile
{
    version     2.0;
    format      ascii;
    class       volVectorField;
    location    "2.6";
    object      U;
}
// * * * * * * * * * * * * * * * * * * * * * * * * * * * * * * * * * * * * * //

dimensions      [0 1 -1 0 0 0 0];

internalField   nonuniform List<vector> 
9600
(
(0.862049 0.00347391 0)
(1.12699 -0.00494707 0)
(0.829122 -0.00438166 0)
(1.21412 0.00610266 0)
(0.867708 0.00729604 0)
(1.04875 -0.00104578 0)
(0.871487 -0.000916984 0)
(1.12855 -0.0151625 0)
(0.829438 -0.00227906 0)
(1.17016 -1.80679e-05 0)
(0.83999 0.000840535 0)
(1.12489 0.0130436 0)
(0.879249 0.0100672 0)
(1.06108 0.010703 0)
(0.882424 0.00328814 0)
(1.05155 -0.00174405 0)
(0.874187 0.00148631 0)
(1.05927 -0.0104482 0)
(0.849162 -6.88011e-05 0)
(1.07168 -0.0148938 0)
(0.870257 0.00346516 0)
(1.11527 -0.00450413 0)
(0.838132 -0.00538601 0)
(1.20147 0.00580969 0)
(0.88435 0.00860569 0)
(1.03732 -0.00081495 0)
(0.886571 -0.00214799 0)
(1.10959 -0.0143889 0)
(0.846107 -0.00325892 0)
(1.14804 0.000236602 0)
(0.864368 0.00126701 0)
(1.09873 0.0126364 0)
(0.91407 0.0109935 0)
(1.02662 0.0108292 0)
(0.929509 0.00345077 0)
(1.00306 -0.00156767 0)
(0.939829 0.00124497 0)
(0.988767 -0.0102538 0)
(0.944917 -9.67556e-05 0)
(0.965611 -0.0165506 0)
(0.886302 0.00350934 0)
(1.09618 -0.00416255 0)
(0.857749 -0.0062284 0)
(1.17389 0.0056913 0)
(0.91399 0.00997985 0)
(1.02109 -0.000724709 0)
(0.910799 -0.00303969 0)
(1.08213 -0.0138023 0)
(0.880198 -0.00392714 0)
(1.1088 0.000212876 0)
(0.90866 0.00179145 0)
(1.05319 0.0120513 0)
(0.953345 0.0121583 0)
(0.994291 0.010675 0)
(0.960563 0.00383719 0)
(0.978941 -0.00177663 0)
(0.965583 0.00155301 0)
(0.976033 -0.0101723 0)
(0.965444 0.000283348 0)
(0.969593 -0.0125228 0)
(0.907835 0.00357976 0)
(1.07357 -0.00388427 0)
(0.885308 -0.00688108 0)
(1.13506 0.00541247 0)
(0.947336 0.0111137 0)
(1.00686 -0.000552582 0)
(0.937246 -0.00368709 0)
(1.05345 -0.0134699 0)
(0.920298 -0.00429676 0)
(1.06684 -6.69138e-05 0)
(0.951558 0.00248735 0)
(1.01363 0.0115565 0)
(0.974609 0.0129151 0)
(0.982039 0.010644 0)
(0.972286 0.00406345 0)
(0.97622 -0.00192458 0)
(0.973169 0.00156868 0)
(0.978522 -0.010182 0)
(0.971695 0.000349869 0)
(0.974303 -0.0114501 0)
(0.931338 0.0036625 0)
(1.05168 -0.00365753 0)
(0.915106 -0.00737323 0)
(1.0925 0.00495982 0)
(0.97587 0.0120573 0)
(0.999327 -0.000299713 0)
(0.959714 -0.00417489 0)
(1.03047 -0.0133355 0)
(0.953581 -0.00443427 0)
(1.03483 -0.000418349 0)
(0.97908 0.0031969 0)
(0.992217 0.0113625 0)
(0.981731 0.0132734 0)
(0.982002 0.0107139 0)
(0.979532 0.00418566 0)
(0.979712 -0.00198821 0)
(0.979376 0.00147167 0)
(0.982418 -0.0100627 0)
(0.977313 0.000332169 0)
(0.977937 -0.0104754 0)
(0.9532 0.003743 0)
(1.03398 -0.00349545 0)
(0.941578 -0.00767363 0)
(1.05417 0.00448056 0)
(0.99512 0.0127336 0)
(0.998942 -1.44708e-05 0)
(0.975878 -0.00447846 0)
(1.01584 -0.0133206 0)
(0.974521 -0.00445268 0)
(1.01593 -0.000691328 0)
(0.991467 0.00377531 0)
(0.984849 0.0114459 0)
(0.984365 0.0133804 0)
(0.985666 0.01069 0)
(0.986574 0.00428132 0)
(0.985054 -0.00204065 0)
(0.9854 0.00138536 0)
(0.986881 -0.00984336 0)
(0.982099 0.00024592 0)
(0.981872 -0.00927628 0)
(0.970842 0.00380035 0)
(1.02195 -0.00338242 0)
(0.961651 -0.00778103 0)
(1.02524 0.00403844 0)
(1.00512 0.0130792 0)
(1.00272 0.000276292 0)
(0.986808 -0.00460904 0)
(1.00813 -0.0133513 0)
(0.984658 -0.00440928 0)
(1.00645 -0.000872189 0)
(0.995056 0.00420998 0)
(0.98388 0.011616 0)
(0.98699 0.0133282 0)
(0.990147 0.0105546 0)
(0.992837 0.00433683 0)
(0.990779 -0.00206358 0)
(0.990753 0.00131958 0)
(0.991127 -0.00950732 0)
(0.986006 0.000116735 0)
(0.985283 -0.007972 0)
(0.983319 0.00382131 0)
(1.01496 -0.00329479 0)
(0.975119 -0.0077373 0)
(1.00678 0.0036499 0)
(1.00857 0.0131332 0)
(1.00716 0.000536952 0)
(0.994435 -0.00461149 0)
(1.00453 -0.0133562 0)
(0.988257 -0.00432693 0)
(1.00168 -0.000988396 0)
(0.995203 0.00453155 0)
(0.98502 0.0117432 0)
(0.990209 0.0131833 0)
(0.994697 0.0103468 0)
(0.998014 0.00435794 0)
(0.995806 -0.00204165 0)
(0.995273 0.00126346 0)
(0.994721 -0.00905936 0)
(0.989218 -4.22762e-05 0)
(0.98799 -0.00661546 0)
(0.991154 0.00380611 0)
(1.01127 -0.00322118 0)
(0.983517 -0.00759045 0)
(0.996822 0.00332221 0)
(1.00857 0.0129854 0)
(1.01024 0.000745206 0)
(0.999989 -0.00452569 0)
(1.00286 -0.0132948 0)
(0.989049 -0.00421793 0)
(0.99874 -0.00107074 0)
(0.994503 0.00475764 0)
(0.986777 0.0117959 0)
(0.993595 0.0129722 0)
(0.998828 0.0100964 0)
(1.00211 0.00436875 0)
(0.999699 -0.0019707 0)
(0.998768 0.00120321 0)
(0.997553 -0.00849737 0)
(0.991804 -0.000210977 0)
(0.990126 -0.00527031 0)
(0.995626 0.00376376 0)
(1.00919 -0.00315758 0)
(0.988716 -0.00738414 0)
(0.992356 0.00305229 0)
(1.00725 0.0127237 0)
(1.01156 0.000889827 0)
(1.00395 -0.00438643 0)
(1.00197 -0.0131632 0)
(0.989156 -0.00408379 0)
(0.996594 -0.00113651 0)
(0.993775 0.00489628 0)
(0.988583 0.0117701 0)
(0.996642 0.0127001 0)
(1.00213 0.00983274 0)
(1.00507 0.00438265 0)
(1.00243 -0.00185674 0)
(1.00118 0.00114208 0)
(0.999591 -0.00784054 0)
(0.993804 -0.000362783 0)
(0.991783 -0.00398295 0)
(0.99804 0.00370572 0)
(1.00774 -0.00310262 0)
(0.992097 -0.00715355 0)
(0.990839 0.00283169 0)
(1.00568 0.0124121 0)
(1.01158 0.000970762 0)
(1.00658 -0.00422295 0)
(1.0014 -0.0129753 0)
(0.989358 -0.00392834 0)
(0.995066 -0.00118354 0)
(0.993207 0.00495476 0)
(0.990104 0.01167 0)
(0.998982 0.0123796 0)
(1.0044 0.00958036 0)
(1.00693 0.00439288 0)
(1.00412 -0.00169789 0)
(1.00266 0.00108171 0)
(1.0009 -0.00712151 0)
(0.995276 -0.000497164 0)
(0.993033 -0.00278341 0)
(0.999338 0.00364137 0)
(1.00657 -0.00305755 0)
(0.994411 -0.00691538 0)
(0.99065 0.00265196 0)
(1.00429 0.0120861 0)
(1.01093 0.00100479 0)
(1.00813 -0.0040535 0)
(1.00099 -0.0127472 0)
(0.989743 -0.0037578 0)
(0.994142 -0.00120613 0)
(0.992854 0.00494441 0)
(0.991202 0.0115154 0)
(1.00051 0.0120271 0)
(1.0057 0.00934702 0)
(1.00788 0.00439166 0)
(1.00502 -0.00148881 0)
(1.00342 0.00101108 0)
(1.00163 -0.00637562 0)
(0.996314 -0.000600313 0)
(0.993952 -0.00169588 0)
(1.00006 0.00357548 0)
(1.00562 -0.00302126 0)
(0.996 -0.00667731 0)
(0.99094 0.00250351 0)
(1.00321 0.0117612 0)
(1.01007 0.0010043 0)
(1.00892 -0.0038866 0)
(1.00069 -0.0124914 0)
(0.990191 -0.00358029 0)
(0.993715 -0.00120103 0)
(0.992727 0.0048802 0)
(0.991913 0.0113309 0)
(1.00137 0.0116529 0)
(1.00627 0.00913332 0)
(1.00821 0.00438078 0)
(1.00538 -0.00124436 0)
(1.00373 0.00093481 0)
(1.00197 -0.00563154 0)
(0.997031 -0.000651454 0)
(0.994617 -0.000735179 0)
(1.00049 0.00350935 0)
(1.00491 -0.00299103 0)
(0.997045 -0.00644215 0)
(0.991334 0.00237756 0)
(1.00249 0.0114418 0)
(1.00928 0.000982467 0)
(1.00924 -0.00372653 0)
(1.00048 -0.012214 0)
(0.990606 -0.00340506 0)
(0.993607 -0.00116895 0)
(0.992788 0.00477713 0)
(0.992348 0.0111358 0)
(1.00178 0.0112571 0)
(1.00639 0.0089427 0)
(1.00817 0.00436059 0)
(1.00545 -0.00097904 0)
(1.00378 0.000869293 0)
(1.00208 -0.00491503 0)
(0.997544 -0.000639457 0)
(0.995103 9.71199e-05 0)
(1.00075 0.00344269 0)
(1.0044 -0.00296382 0)
(0.997689 -0.00620952 0)
(0.991697 0.00226599 0)
(1.00207 0.011126 0)
(1.00864 0.000949698 0)
(1.00928 -0.00357563 0)
(1.00034 -0.0119171 0)
(0.990956 -0.00323814 0)
(0.993657 -0.00111202 0)
(0.99298 0.0046431 0)
(0.99262 0.0109436 0)
(1.00194 0.0108432 0)
(1.00629 0.00876815 0)
(1.00796 0.00432582 0)
(1.00538 -0.000710209 0)
(1.00372 0.000827948 0)
(1.00209 -0.00424165 0)
(0.997943 -0.000567769 0)
(0.995475 0.000804541 0)
(1.00092 0.00337465 0)
(1.00404 -0.00293668 0)
(0.998065 -0.00597813 0)
(0.992002 0.00216187 0)
(1.00188 0.0108094 0)
(1.00817 0.000913394 0)
(1.00919 -0.00343352 0)
(1.00024 -0.0116019 0)
(0.991254 -0.00308245 0)
(0.993772 -0.00103128 0)
(0.993255 0.00448175 0)
(0.992814 0.010758 0)
(1.00199 0.0104201 0)
(1.00611 0.00859895 0)
(1.00769 0.00428392 0)
(1.00527 -0.000452437 0)
(1.00363 0.000825578 0)
(1.00205 -0.00361439 0)
(0.998287 -0.000446491 0)
(0.995785 0.00140269 0)
(1.00103 0.0033044 0)
(1.00378 -0.00290724 0)
(0.998285 -0.00574725 0)
(0.992267 0.00206096 0)
(1.00182 0.0104882 0)
(1.00781 0.000878804 0)
(1.00903 -0.00330021 0)
(1.00017 -0.0112671 0)
(0.991521 -0.00294227 0)
(0.993911 -0.000926556 0)
(0.993578 0.00429483 0)
(0.992983 0.0105811 0)
(1.00199 0.00998855 0)
(1.00591 0.00842948 0)
(1.00741 0.00425571 0)
(1.00514 -0.000213045 0)
(1.00353 0.000879352 0)
(1.002 -0.00302632 0)
(0.998609 -0.000291456 0)
(0.996067 0.00191813 0)
(1.00109 0.00323134 0)
(1.00359 -0.00287398 0)
(0.998423 -0.0055171 0)
(0.992516 0.0019614 0)
(1.00183 0.01016 0)
(1.00753 0.000849981 0)
(1.00884 -0.00317668 0)
(1.00013 -0.0109109 0)
(0.991776 -0.00281951 0)
(0.994069 -0.000802001 0)
(0.993927 0.00408468 0)
(0.993158 0.0104104 0)
(1.00196 0.00955419 0)
(1.00572 0.00825353 0)
(1.00712 0.00424413 0)
(1.00502 -1.16022e-05 0)
(1.00343 0.000981567 0)
(1.00196 -0.00246266 0)
(0.998921 -0.000126407 0)
(0.996343 0.00237262 0)
(1.00112 0.00315523 0)
(1.00344 -0.00283612 0)
(0.998518 -0.00528845 0)
(0.992777 0.00186322 0)
(1.00183 0.00982215 0)
(1.00729 0.000830263 0)
(1.00861 -0.00306477 0)
(1.00012 -0.0105332 0)
(0.992025 -0.00271287 0)
(0.994247 -0.000655912 0)
(0.994287 0.0038543 0)
(0.99335 0.0102424 0)
(1.00192 0.00912631 0)
(1.00555 0.00805521 0)
(1.00682 0.00425801 0)
(1.0049 0.000156573 0)
(1.00334 0.00110938 0)
(1.00192 -0.00190886 0)
(0.999226 3.38802e-05 0)
(0.996627 0.002773 0)
(1.0011 0.00307572 0)
(1.00334 -0.0027921 0)
(0.998585 -0.00506327 0)
(0.993064 0.001769 0)
(1.00181 0.00947191 0)
(1.00706 0.000822597 0)
(1.00835 -0.00296598 0)
(1.00014 -0.0101334 0)
(0.99227 -0.00262399 0)
(0.99445 -0.000487366 0)
(0.994644 0.00360713 0)
(0.993558 0.0100705 0)
(1.00185 0.00871815 0)
(1.00538 0.00781991 0)
(1.00649 0.0043119 0)
(1.00479 0.000307687 0)
(1.00324 0.00125301 0)
(1.00189 -0.00135362 0)
(0.999522 0.000188395 0)
(0.996927 0.00311736 0)
(1.00105 0.00299239 0)
(1.00327 -0.00274092 0)
(0.998624 -0.00484281 0)
(0.993384 0.00168062 0)
(1.00176 0.00910841 0)
(1.00684 0.000827239 0)
(1.00807 -0.00288114 0)
(1.00019 -0.0097113 0)
(0.992505 -0.00255412 0)
(0.994673 -0.000306421 0)
(0.994991 0.00335414 0)
(0.993783 0.00988056 0)
(1.00176 0.00834332 0)
(1.00523 0.00755214 0)
(1.00615 0.0044029 0)
(1.00467 0.000455586 0)
(1.00315 0.00138809 0)
(1.00186 -0.000788559 0)
(0.999805 0.000337668 0)
(0.997247 0.00339616 0)
(1.00095 0.00290534 0)
(1.00323 -0.00268253 0)
(0.998638 -0.00462853 0)
(0.993732 0.0015994 0)
(1.00168 0.00873084 0)
(1.00664 0.000845423 0)
(1.00775 -0.0028109 0)
(1.00026 -0.00927115 0)
(0.992731 -0.00249858 0)
(0.994911 -0.000114067 0)
(0.995324 0.00309973 0)
(0.994019 0.00967146 0)
(1.00164 0.00800296 0)
(1.00509 0.00724942 0)
(1.00579 0.00451638 0)
(1.00455 0.000599638 0)
(1.00306 0.00150264 0)
(1.00183 -0.00020873 0)
(1.00007 0.000491196 0)
(0.997591 0.00359234 0)
(1.00084 0.0028145 0)
(1.00321 -0.00261537 0)
(0.998635 -0.00442393 0)
(0.994098 0.00152839 0)
(1.00158 0.00833792 0)
(1.00644 0.00087745 0)
(1.00742 -0.00275211 0)
(1.00034 -0.00881795 0)
(0.99295 -0.00245283 0)
(0.995153 8.53229e-05 0)
(0.995646 0.00285312 0)
(0.994263 0.00943278 0)
(1.0015 0.00770522 0)
(1.00497 0.00690739 0)
(1.00542 0.00464261 0)
(1.00443 0.000758143 0)
(1.00299 0.00158575 0)
(1.00179 0.000369347 0)
(1.00031 0.000672757 0)
(0.997958 0.00370372 0)
(1.00071 0.00271939 0)
(1.00319 -0.00253854 0)
(0.998625 -0.00423082 0)
(0.994466 0.00147069 0)
(1.00147 0.00792941 0)
(1.00624 0.000922894 0)
(1.00708 -0.0027069 0)
(1.00042 -0.00835228 0)
(0.993167 -0.00241018 0)
(0.995391 0.000277651 0)
(0.995958 0.00262867 0)
(0.994511 0.00915836 0)
(1.00135 0.00745457 0)
(1.00485 0.00654299 0)
(1.00506 0.00477348 0)
(1.00429 0.000946224 0)
(1.00293 0.00162992 0)
(1.00177 0.000918427 0)
(1.00052 0.000900292 0)
(0.998347 0.00373511 0)
(1.00059 0.00262044 0)
(1.00317 -0.00245152 0)
(0.998622 -0.00405108 0)
(0.994822 0.00142529 0)
(1.00137 0.00750867 0)
(1.00602 0.000979525 0)
(1.00675 -0.00266734 0)
(1.00049 -0.00788286 0)
(0.993391 -0.0023625 0)
(0.995619 0.000455596 0)
(0.996267 0.00242612 0)
(0.994758 0.00885582 0)
(1.00119 0.00724476 0)
(1.00475 0.00617457 0)
(1.00471 0.00488417 0)
(1.00413 0.00117773 0)
(1.0029 0.00165289 0)
(1.00175 0.00142237 0)
(1.00071 0.00118551 0)
(0.998753 0.00369498 0)
(1.00049 0.0025174 0)
(1.00312 -0.00235365 0)
(0.998638 -0.00388542 0)
(0.995159 0.00139221 0)
(1.00128 0.00707472 0)
(1.0058 0.00104701 0)
(1.00643 -0.00263341 0)
(1.00056 -0.00741129 0)
(0.993627 -0.00231069 0)
(0.995832 0.000616792 0)
(0.996574 0.00224942 0)
(0.995002 0.00852487 0)
(1.00103 0.00706973 0)
(1.00465 0.00580195 0)
(1.00438 0.00496821 0)
(1.00395 0.00145673 0)
(1.0029 0.00166032 0)
(1.00175 0.00186106 0)
(1.00087 0.0015284 0)
(0.999167 0.00360363 0)
(1.00041 0.00241004 0)
(1.00305 -0.00224381 0)
(0.998677 -0.00373598 0)
(0.995472 0.0013743 0)
(1.0012 0.00662874 0)
(1.00555 0.00111851 0)
(1.00612 -0.002604 0)
(1.00061 -0.00694896 0)
(0.993878 -0.00224844 0)
(0.996031 0.000752907 0)
(0.996883 0.00209523 0)
(0.995242 0.0081697 0)
(1.00087 0.00691704 0)
(1.00455 0.00544156 0)
(1.00409 0.00501889 0)
(1.00374 0.00177324 0)
(1.00291 0.00166658 0)
(1.00176 0.00222447 0)
(1.00099 0.00192343 0)
(0.999576 0.00349335 0)
(1.00035 0.00229901 0)
(1.00295 -0.00212289 0)
(0.99874 -0.00360165 0)
(0.995763 0.0013675 0)
(1.00113 0.00617775 0)
(1.00529 0.001193 0)
(1.00583 -0.00256729 0)
(1.00065 -0.00650754 0)
(0.994144 -0.00215803 0)
(0.996218 0.000864303 0)
(0.997193 0.00196255 0)
(0.99548 0.0078001 0)
(1.00071 0.00678574 0)
(1.00445 0.00510466 0)
(1.00384 0.00503217 0)
(1.00352 0.00212048 0)
(1.00293 0.00168769 0)
(1.00181 0.00250649 0)
(1.00109 0.00235853 0)
(0.999959 0.00341252 0)
(1.00032 0.0021839 0)
(1.00284 -0.00199036 0)
(0.998821 -0.00348171 0)
(0.996039 0.00136871 0)
(1.00109 0.00572659 0)
(1.00502 0.0012668 0)
(1.00555 -0.0025199 0)
(1.00069 -0.00608996 0)
(0.99442 -0.00204103 0)
(0.996396 0.000958416 0)
(0.997503 0.0018509 0)
(0.995721 0.00742181 0)
(1.00055 0.00667588 0)
(1.00436 0.00479304 0)
(1.00363 0.00500324 0)
(1.00328 0.00248923 0)
(1.00295 0.00174188 0)
(1.00189 0.0026955 0)
(1.00116 0.00280076 0)
(1.00029 0.00342463 0)
(1.0003 0.00206532 0)
(1.00272 -0.00184739 0)
(0.998913 -0.00337474 0)
(0.996302 0.00137658 0)
(1.00105 0.00527864 0)
(1.00475 0.00132591 0)
(1.00527 -0.00244931 0)
(1.00072 -0.00571056 0)
(0.994703 -0.00190947 0)
(0.996567 0.00103996 0)
(0.997812 0.00175009 0)
(0.995968 0.0070333 0)
(1.00038 0.00657722 0)
(1.00426 0.00451989 0)
(1.00347 0.00493161 0)
(1.00303 0.00286572 0)
(1.00296 0.00184249 0)
(1.002 0.0028041 0)
(1.00123 0.00320752 0)
(1.00056 0.00356019 0)
(1.00028 0.00194324 0)
(1.00259 -0.00169493 0)
(0.999009 -0.00327994 0)
(0.996555 0.00138797 0)
(1.00102 0.00484299 0)
(1.00447 0.00137079 0)
(1.00499 -0.00234953 0)
(1.00075 -0.00536437 0)
(0.994989 -0.00176812 0)
(0.996732 0.00111725 0)
(0.998116 0.0016578 0)
(0.996224 0.00664591 0)
(1.00022 0.00648662 0)
(1.00416 0.00428699 0)
(1.00335 0.00482594 0)
(1.00277 0.0032319 0)
(1.00294 0.0019945 0)
(1.00214 0.00285648 0)
(1.00131 0.00353256 0)
(1.00076 0.00379801 0)
(1.00027 0.00181919 0)
(1.00245 -0.00153516 0)
(0.999105 -0.00319526 0)
(0.996801 0.00140095 0)
(1.001 0.00442653 0)
(1.00421 0.00138601 0)
(1.00471 -0.00221715 0)
(1.00077 -0.00504378 0)
(0.995278 -0.0016179 0)
(0.99689 0.00119692 0)
(0.998412 0.00157822 0)
(0.996494 0.00626309 0)
(1.00005 0.00640677 0)
(1.00405 0.00409441 0)
(1.00327 0.00468241 0)
(1.00253 0.00357798 0)
(1.00288 0.00219813 0)
(1.00229 0.0028804 0)
(1.00142 0.00375655 0)
(1.0009 0.00408758 0)
(1.00026 0.0016924 0)
(1.00231 -0.00136956 0)
(0.9992 -0.00311398 0)
(0.997039 0.00140421 0)
(1.00098 0.0040357 0)
(1.00395 0.00136337 0)
(1.00442 -0.00205764 0)
(1.0008 -0.00474492 0)
(0.995568 -0.00147204 0)
(0.997042 0.00127997 0)
(0.998695 0.00151281 0)
(0.996777 0.00587839 0)
(0.999894 0.00633019 0)
(1.00392 0.00395055 0)
(1.00324 0.00450784 0)
(1.00231 0.00388925 0)
(1.00279 0.00244236 0)
(1.00244 0.00290287 0)
(1.00156 0.0038959 0)
(1.00101 0.00436169 0)
(1.00025 0.00156523 0)
(1.00217 -0.00120173 0)
(0.999291 -0.00303318 0)
(0.99727 0.00138602 0)
(1.00095 0.00368553 0)
(1.0037 0.00130986 0)
(1.00414 -0.00187638 0)
(1.00082 -0.00445769 0)
(0.995861 -0.00134917 0)
(0.997188 0.00135939 0)
(0.998963 0.00146419 0)
(0.997074 0.00549936 0)
(0.999742 0.00625543 0)
(1.00378 0.003863 0)
(1.00324 0.00431108 0)
(1.00212 0.00415512 0)
(1.00267 0.00271771 0)
(1.00259 0.00293141 0)
(1.00173 0.00397482 0)
(1.00111 0.00457862 0)
(1.00024 0.00143882 0)
(1.00202 -0.00103687 0)
(0.999377 -0.00294457 0)
(0.997494 0.00134243 0)
(1.00093 0.00337857 0)
(1.00345 0.00122434 0)
(1.00386 -0.00168572 0)
(1.00084 -0.00416972 0)
(0.996156 -0.00124463 0)
(0.99733 0.00143822 0)
(0.999212 0.00143234 0)
(0.997383 0.00513101 0)
(0.999603 0.00618398 0)
(1.00361 0.00382174 0)
(1.00327 0.00409738 0)
(1.00197 0.00435731 0)
(1.00252 0.00301506 0)
(1.00271 0.00296628 0)
(1.00194 0.00401036 0)
(1.00123 0.00473369 0)
(1.00023 0.00131284 0)
(1.00188 -0.000875089 0)
(0.999457 -0.00284154 0)
(0.997712 0.00126906 0)
(1.0009 0.00310587 0)
(1.00322 0.00111418 0)
(1.00359 -0.0015074 0)
(1.00085 -0.00387612 0)
(0.996452 -0.00114811 0)
(0.99747 0.0015139 0)
(0.99944 0.00141818 0)
(0.997705 0.0047681 0)
(0.99948 0.00610163 0)
(1.00342 0.00382682 0)
(1.00332 0.00388135 0)
(1.00186 0.00449449 0)
(1.00233 0.00333715 0)
(1.00281 0.00301764 0)
(1.00216 0.00400456 0)
(1.00136 0.00483509 0)
(1.00022 0.00119037 0)
(1.00173 -0.000723947 0)
(0.999529 -0.00271297 0)
(0.997924 0.00115666 0)
(1.00086 0.00286127 0)
(1.00298 0.000999944 0)
(1.00332 -0.00133532 0)
(1.00085 -0.00357576 0)
(0.996747 -0.00105716 0)
(0.997609 0.0015819 0)
(0.999648 0.00142994 0)
(0.998037 0.00441993 0)
(0.999382 0.00599959 0)
(1.00321 0.00387383 0)
(1.00338 0.0036722 0)
(1.0018 0.00455206 0)
(1.00214 0.00366528 0)
(1.00285 0.00310184 0)
(1.0024 0.00396045 0)
(1.00153 0.00489067 0)
(1.00021 0.0010729 0)
(1.00158 -0.000589549 0)
(0.99959 -0.00255404 0)
(0.99813 0.00101327 0)
(1.00083 0.00263143 0)
(1.00276 0.000901831 0)
(1.00306 -0.00117027 0)
(1.00085 -0.00326504 0)
(0.997039 -0.000958867 0)
(0.997749 0.0016497 0)
(0.999834 0.00146725 0)
(0.998377 0.00409034 0)
(0.999311 0.00586821 0)
(1.00297 0.00394636 0)
(1.00344 0.00348045 0)
(1.0018 0.00452116 0)
(1.00194 0.00397143 0)
(1.00285 0.00323287 0)
(1.00263 0.00388711 0)
(1.00173 0.00489363 0)
(1.00021 0.000960613 0)
(1.00143 -0.000471686 0)
(0.999641 -0.00237395 0)
(0.998326 0.000856479 0)
(1.00079 0.00240138 0)
(1.00254 0.000813957 0)
(1.0028 -0.00101343 0)
(1.00085 -0.00294072 0)
(0.997328 -0.000848478 0)
(0.99789 0.00171048 0)
(0.999996 0.00152453 0)
(0.998717 0.00377346 0)
(0.999273 0.00569271 0)
(1.00271 0.00403126 0)
(1.00348 0.00332416 0)
(1.00186 0.00441764 0)
(1.00176 0.00423625 0)
(1.0028 0.00342045 0)
(1.00285 0.00381064 0)
(1.00197 0.00483854 0)
(1.0002 0.000853588 0)
(1.00129 -0.000371029 0)
(0.999682 -0.00218334 0)
(0.998511 0.000697245 0)
(1.00076 0.00217687 0)
(1.00234 0.000728103 0)
(1.00256 -0.000860628 0)
(1.00084 -0.00260578 0)
(0.997612 -0.000729527 0)
(0.998033 0.00176263 0)
(1.00013 0.00159615 0)
(0.999051 0.00347777 0)
(0.99927 0.00547922 0)
(1.00245 0.00411733 0)
(1.0035 0.00321033 0)
(1.00197 0.00425714 0)
(1.00162 0.00443403 0)
(1.00269 0.0036514 0)
(1.00304 0.00376327 0)
(1.00224 0.00473022 0)
(1.00019 0.000755226 0)
(1.00115 -0.000301066 0)
(0.999712 -0.00198025 0)
(0.998683 0.000543231 0)
(1.00073 0.00195378 0)
(1.00214 0.000648923 0)
(1.00234 -0.000714151 0)
(1.00083 -0.00226203 0)
(0.99789 -0.00059538 0)
(0.998179 0.00180437 0)
(1.00024 0.0016737 0)
(0.999375 0.0032062 0)
(0.999306 0.00523494 0)
(1.00217 0.0041965 0)
(1.00349 0.00314764 0)
(1.00213 0.00406572 0)
(1.00153 0.00455309 0)
(1.00255 0.00389772 0)
(1.00317 0.00376639 0)
(1.00253 0.00458363 0)
(1.00018 0.000666741 0)
(1.00102 -0.000257613 0)
(0.999734 -0.00177845 0)
(0.998843 0.00040435 0)
(1.0007 0.00173726 0)
(1.00196 0.000573466 0)
(1.00213 -0.000589897 0)
(1.00081 -0.00192184 0)
(0.998158 -0.000429104 0)
(0.998327 0.00185269 0)
(1.00033 0.00175899 0)
(0.999684 0.00296778 0)
(0.999381 0.00496656 0)
(1.00191 0.00425617 0)
(1.00344 0.00313047 0)
(1.0023 0.00386051 0)
(1.0015 0.00459078 0)
(1.0024 0.00412995 0)
(1.00324 0.00382689 0)
(1.00282 0.00443246 0)
(1.00017 0.000583523 0)
(1.0009 -0.000226233 0)
(0.999749 -0.00158467 0)
(0.998991 0.000290577 0)
(1.00068 0.00151486 0)
(1.0018 0.00050527 0)
(1.00194 -0.000479789 0)
(1.00081 -0.00159333 0)
(0.998419 -0.000232157 0)
(0.998475 0.00190863 0)
(1.0004 0.00185529 0)
(0.999972 0.00277344 0)
(0.999494 0.00469369 0)
(1.00167 0.00429769 0)
(1.00335 0.00315881 0)
(1.00249 0.00366232 0)
(1.00155 0.00455126 0)
(1.00225 0.00432184 0)
(1.00324 0.00392508 0)
(1.00307 0.00430146 0)
(1.00016 0.000506593 0)
(1.00079 -0.000206714 0)
(0.999758 -0.00140903 0)
(0.999125 0.000205434 0)
(1.00065 0.00130167 0)
(1.00164 0.000431465 0)
(1.00177 -0.000401128 0)
(1.0008 -0.00126236 0)
(0.998667 -1.5549e-05 0)
(0.998621 0.0019707 0)
(1.00045 0.00195782 0)
(1.00024 0.0026138 0)
(0.999644 0.00441465 0)
(1.00146 0.00431118 0)
(1.00323 0.00322665 0)
(1.00268 0.00349606 0)
(1.00165 0.00445296 0)
(1.00213 0.00447126 0)
(1.00319 0.00405518 0)
(1.00328 0.0042249 0)
(1.00015 0.000441714 0)
(1.00068 -0.000211348 0)
(0.999764 -0.00123163 0)
(0.999247 0.000133434 0)
(1.00063 0.00113489 0)
(1.00151 0.000412522 0)
(1.00162 -0.00028815 0)
(1.00081 -0.000991814 0)
(0.998903 0.000129191 0)
(0.998764 0.00198613 0)
(1.00047 0.00203789 0)
(1.00048 0.0024786 0)
(0.999825 0.00412851 0)
(1.0013 0.00428357 0)
(1.00308 0.00331451 0)
(1.00284 0.00337018 0)
(1.00181 0.00430046 0)
(1.00205 0.00455605 0)
(1.0031 0.00418631 0)
(1.00342 0.00419144 0)
(1.00014 0.000385569 0)
(1.00058 -0.000230894 0)
(0.999769 -0.00105519 0)
(0.999358 8.28423e-05 0)
(1.00063 0.00102252 0)
(1.00139 0.000447247 0)
(1.00148 -0.000155846 0)
(1.00082 -0.000797356 0)
(0.999134 0.000197797 0)
(0.998918 0.00195136 0)
(1.00049 0.00208934 0)
(1.00068 0.00236458 0)
(1.00003 0.00384065 0)
(1.00118 0.00421028 0)
(1.00291 0.003399 0)
(1.00296 0.00328734 0)
(1.00201 0.00411265 0)
(1.00203 0.00456302 0)
(1.00299 0.00429827 0)
(1.00349 0.00419113 0)
(1.00013 0.000334958 0)
(1.0005 -0.000250454 0)
(0.999777 -0.000899052 0)
(0.999461 7.5787e-05 0)
(1.00062 0.000917425 0)
(1.00128 0.000452267 0)
(1.00136 -5.33152e-05 0)
(1.00083 -0.000602089 0)
(0.99936 0.000268822 0)
(0.99908 0.00191648 0)
(1.0005 0.00214582 0)
(1.00086 0.00229252 0)
(1.00024 0.00357896 0)
(1.0011 0.00411427 0)
(1.00274 0.00347941 0)
(1.00305 0.00325567 0)
(1.00223 0.0039356 0)
(1.00207 0.00451284 0)
(1.00289 0.00438806 0)
(1.00351 0.00422609 0)
(1.00012 0.00029125 0)
(1.00043 -0.000268529 0)
(0.999789 -0.000756348 0)
(0.999554 8.06147e-05 0)
(1.00062 0.000804886 0)
(1.00119 0.000462244 0)
(1.00125 6.57033e-05 0)
(1.00083 -0.000413634 0)
(0.999574 0.000335329 0)
(0.999254 0.00187575 0)
(1.00052 0.0022073 0)
(1.00101 0.0022689 0)
(1.00047 0.00335631 0)
(1.00108 0.00399878 0)
(1.00258 0.00354343 0)
(1.0031 0.0032571 0)
(1.00246 0.00377821 0)
(1.00217 0.00441281 0)
(1.00281 0.00442962 0)
(1.00348 0.00426523 0)
(1.00011 0.000254728 0)
(1.00036 -0.000284955 0)
(0.999804 -0.000635121 0)
(0.999638 9.46262e-05 0)
(1.00062 0.000715699 0)
(1.00111 0.000470511 0)
(1.00115 0.000175622 0)
(1.00084 -0.00023107 0)
(0.999781 0.000415796 0)
(0.999439 0.00183592 0)
(1.00054 0.00224545 0)
(1.00113 0.00225614 0)
(1.00068 0.0031535 0)
(1.0011 0.00385286 0)
(1.00244 0.00357259 0)
(1.00311 0.00327381 0)
(1.00266 0.00364167 0)
(1.00231 0.00427926 0)
(1.00277 0.00442545 0)
(1.00343 0.00429516 0)
(1.00011 0.00022314 0)
(1.00031 -0.000298253 0)
(0.999825 -0.00053094 0)
(0.999715 0.000120123 0)
(1.00062 0.000639344 0)
(1.00105 0.000469439 0)
(1.00106 0.000289052 0)
(1.00084 -4.31722e-05 0)
(0.999973 0.000493511 0)
(0.999628 0.00177575 0)
(1.00056 0.00225296 0)
(1.00123 0.00225267 0)
(1.00089 0.00298534 0)
(1.00116 0.00370624 0)
(1.00232 0.00357993 0)
(1.00309 0.00330193 0)
(1.00285 0.003531 0)
(1.00249 0.00411947 0)
(1.00277 0.00437152 0)
(1.00338 0.00429299 0)
(1.0001 0.000196491 0)
(1.00027 -0.000304377 0)
(0.99985 -0.000446808 0)
(0.999786 0.000149713 0)
(1.00063 0.000582498 0)
(1.00101 0.000468715 0)
(1.001 0.000390477 0)
(1.00085 0.000136803 0)
(1.00015 0.000572804 0)
(0.999822 0.00171865 0)
(1.0006 0.002256 0)
(1.00131 0.00226801 0)
(1.00109 0.00284348 0)
(1.00125 0.00354922 0)
(1.00223 0.0035536 0)
(1.00306 0.00331969 0)
(1.00299 0.00344638 0)
(1.00268 0.00395338 0)
(1.00282 0.00428202 0)
(1.00333 0.00426851 0)
(1.00009 0.000173851 0)
(1.00023 -0.000302561 0)
(0.999882 -0.000375813 0)
(0.999854 0.000184209 0)
(1.00064 0.000543735 0)
(1.00098 0.00046151 0)
(1.00095 0.000474823 0)
(1.00085 0.000308784 0)
(1.00031 0.000667425 0)
(1.00002 0.00167117 0)
(1.00066 0.00223545 0)
(1.00137 0.00227597 0)
(1.00128 0.00271883 0)
(1.00137 0.0033853 0)
(1.00218 0.0035054 0)
(1.00301 0.00333355 0)
(1.00311 0.00339511 0)
(1.00288 0.00380646 0)
(1.00291 0.00416686 0)
(1.00331 0.00422409 0)
(1.00008 0.00015421 0)
(1.0002 -0.000288604 0)
(0.999918 -0.000315249 0)
(0.999918 0.000216127 0)
(1.00064 0.000523426 0)
(1.00097 0.000454234 0)
(1.00092 0.000538587 0)
(1.00086 0.000462003 0)
(1.00045 0.000767847 0)
(1.0002 0.00163057 0)
(1.00073 0.00219521 0)
(1.00143 0.00227641 0)
(1.00144 0.00262761 0)
(1.0015 0.00323761 0)
(1.00217 0.00344185 0)
(1.00297 0.00333689 0)
(1.0032 0.00335487 0)
(1.00306 0.00367114 0)
(1.00302 0.00402101 0)
(1.00331 0.00414431 0)
(1.00007 0.00013696 0)
(1.00018 -0.000262576 0)
(0.999957 -0.000261373 0)
(0.99998 0.000242994 0)
(1.00064 0.000516609 0)
(1.00096 0.000452442 0)
(1.00091 0.000583967 0)
(1.00088 0.000592894 0)
(1.00058 0.00086663 0)
(1.00038 0.00160416 0)
(1.00081 0.0021564 0)
(1.00148 0.00227295 0)
(1.00159 0.00255201 0)
(1.00165 0.00309793 0)
(1.00218 0.00335473 0)
(1.00294 0.00331706 0)
(1.00325 0.00331734 0)
(1.00322 0.00355325 0)
(1.00316 0.00387032 0)
(1.00334 0.00404041 0)
(1.00007 0.000122008 0)
(1.00015 -0.000227148 0)
(0.999997 -0.000212814 0)
(1.00004 0.00026137 0)
(1.00065 0.000521022 0)
(1.00096 0.000461492 0)
(1.00092 0.000618381 0)
(1.00091 0.000700246 0)
(1.00069 0.000958888 0)
(1.00055 0.00159048 0)
(1.00089 0.00211793 0)
(1.00153 0.00226627 0)
(1.00172 0.00248167 0)
(1.0018 0.00296205 0)
(1.00222 0.00325513 0)
(1.00292 0.00327664 0)
(1.00329 0.0032815 0)
(1.00336 0.00345437 0)
(1.0033 0.00372483 0)
(1.00339 0.00391743 0)
(1.00006 0.000109381 0)
(1.00014 -0.000187141 0)
(1.00003 -0.000167038 0)
(1.0001 0.000270383 0)
(1.00065 0.000533315 0)
(1.00095 0.000483781 0)
(1.00093 0.000649413 0)
(1.00094 0.000783063 0)
(1.0008 0.00104095 0)
(1.00071 0.00158527 0)
(1.00099 0.00207413 0)
(1.00158 0.00225489 0)
(1.00183 0.00242722 0)
(1.00195 0.00283487 0)
(1.00228 0.00314972 0)
(1.00292 0.00322061 0)
(1.00332 0.00323601 0)
(1.00347 0.0033666 0)
(1.00344 0.00358227 0)
(1.00346 0.00378013 0)
(1.00005 9.91441e-05 0)
(1.00012 -0.000146722 0)
(1.00007 -0.000119591 0)
(1.00016 0.000274917 0)
(1.00065 0.000547049 0)
(1.00096 0.000519161 0)
(1.00095 0.00068255 0)
(1.00099 0.000846211 0)
(1.0009 0.00110857 0)
(1.00085 0.00158605 0)
(1.00108 0.00203356 0)
(1.00163 0.00223423 0)
(1.00192 0.0023864 0)
(1.00209 0.00272056 0)
(1.00237 0.00303263 0)
(1.00293 0.00315013 0)
(1.00335 0.00317597 0)
(1.00355 0.00328306 0)
(1.00356 0.00344903 0)
(1.00355 0.00363389 0)
(1.00005 9.15618e-05 0)
(1.00011 -0.000108632 0)
(1.0001 -7.13233e-05 0)
(1.00021 0.000279129 0)
(1.00066 0.000560102 0)
(1.00096 0.000561724 0)
(1.00098 0.000719713 0)
(1.00103 0.000898371 0)
(1.00099 0.00115884 0)
(1.00099 0.00158513 0)
(1.00118 0.00200125 0)
(1.00168 0.00220934 0)
(1.002 0.00234761 0)
(1.00221 0.00262336 0)
(1.00246 0.00290938 0)
(1.00296 0.00306348 0)
(1.00337 0.00310737 0)
(1.00362 0.00319799 0)
(1.00367 0.00333019 0)
(1.00365 0.00348332 0)
(1.00004 8.66643e-05 0)
(1.0001 -7.38252e-05 0)
(1.00013 -2.26462e-05 0)
(1.00026 0.000284969 0)
(1.00067 0.000571689 0)
(1.00096 0.00060632 0)
(1.00101 0.000762977 0)
(1.00108 0.000945212 0)
(1.00108 0.00119698 0)
(1.00111 0.00157746 0)
(1.00127 0.00196605 0)
(1.00172 0.0021857 0)
(1.00206 0.00230901 0)
(1.00232 0.00253815 0)
(1.00256 0.00279259 0)
(1.00301 0.00296024 0)
(1.0034 0.00302894 0)
(1.00367 0.00310798 0)
(1.00375 0.00321907 0)
(1.00374 0.00333827 0)
(1.00004 8.44248e-05 0)
(1.00009 -4.252e-05 0)
(1.00015 2.6764e-05 0)
(1.00031 0.000295888 0)
(1.00068 0.000580433 0)
(1.00097 0.000648528 0)
(1.00103 0.00081059 0)
(1.00113 0.000988656 0)
(1.00116 0.00122935 0)
(1.00123 0.00156812 0)
(1.00137 0.00192332 0)
(1.00177 0.00215612 0)
(1.00211 0.00227761 0)
(1.00242 0.00246092 0)
(1.00265 0.00268581 0)
(1.00306 0.00285087 0)
(1.00343 0.00293414 0)
(1.00372 0.00301146 0)
(1.00381 0.00310473 0)
(1.00381 0.00320267 0)
(1.00004 8.43877e-05 0)
(1.00008 -1.39703e-05 0)
(1.00017 7.51092e-05 0)
(1.00035 0.000312832 0)
(1.0007 0.000588943 0)
(1.00098 0.00068669 0)
(1.00106 0.000858126 0)
(1.00118 0.00103066 0)
(1.00123 0.00125668 0)
(1.00133 0.00155942 0)
(1.00146 0.00188147 0)
(1.00183 0.00211271 0)
(1.00215 0.00224562 0)
(1.00249 0.00239432 0)
(1.00273 0.00258185 0)
(1.00311 0.00274419 0)
(1.00346 0.00282771 0)
(1.00376 0.00290591 0)
(1.00387 0.00298602 0)
(1.00387 0.00307044 0)
(1.00003 8.6315e-05 0)
(1.00008 1.24392e-05 0)
(1.00019 0.000120369 0)
(1.00039 0.000335237 0)
(1.00072 0.000601385 0)
(1.001 0.000720731 0)
(1.00109 0.000901344 0)
(1.00122 0.00107334 0)
(1.0013 0.00128142 0)
(1.00142 0.00154784 0)
(1.00154 0.00184368 0)
(1.00188 0.00206541 0)
(1.00219 0.00220235 0)
(1.00255 0.00233732 0)
(1.0028 0.00248204 0)
(1.00317 0.00263422 0)