/*--------------------------------*- C++ -*----------------------------------*\
| =========                 |                                                 |
| \\      /  F ield         | OpenFOAM: The Open Source CFD Toolbox           |
|  \\    /   O peration     | Version:  3.0.1                                 |
|   \\  /    A nd           | Web:      www.OpenFOAM.org                      |
|    \\/     M anipulation  |                                                 |
\*---------------------------------------------------------------------------*/
FoamFile
{
    version     2.0;
    format      ascii;
    class       volScalarField;
    location    "2.1";
    object      p;
}
// * * * * * * * * * * * * * * * * * * * * * * * * * * * * * * * * * * * * * //

dimensions      [0 2 -2 0 0 0 0];

internalField   nonuniform List<scalar> 
9600
(
3.71423e-11
0.000288788
0.000346701
0.000875743
-0.000515501
-0.000652487
0.000306908
0.00126797
0.000748104
0.00157044
0.0019593
0.000608434
0.000482946
0.00147951
0.00165912
0.00265673
0.00298264
0.00490555
0.00637932
0.0113215
2.66498e-07
0.000294966
0.000345578
0.000849397
-0.000510172
-0.00063791
0.000305168
0.001265
0.000748923
0.00155388
0.00195982
0.000596249
0.000499202
0.00147754
0.00166519
0.00265479
0.00299323
0.00487649
0.00645019
0.010875
1.60548e-06
0.000301217
0.000339643
0.000825357
-0.000500621
-0.000623345
0.000302592
0.00125891
0.00074576
0.00153388
0.00195642
0.000585756
0.000519335
0.00147514
0.00167642
0.00264903
0.0030076
0.00483531
0.00647667
0.0103999
3.93532e-06
0.000305688
0.000333115
0.000806613
-0.000490672
-0.000610456
0.000303631
0.00124882
0.000740197
0.00151525
0.00194777
0.00057912
0.000540162
0.00147451
0.00168935
0.00263972
0.0030243
0.0047836
0.00647362
0.00995538
7.34471e-06
0.000308767
0.00032749
0.000792162
-0.000480496
-0.000598484
0.000309439
0.00123488
0.00073391
0.00149676
0.00193676
0.000575479
0.000563038
0.00147395
0.00170361
0.00262758
0.00303972
0.00472568
0.00644605
0.00953281
1.19128e-05
0.000310695
0.000322983
0.000782169
-0.000469992
-0.000586982
0.000319726
0.00121858
0.000727269
0.00147769
0.00192624
0.000574124
0.000587467
0.00147236
0.00171934
0.0026126
0.00305294
0.00466497
0.0063941
0.00913002
1.74462e-05
0.000311781
0.000320028
0.000775994
-0.000459159
-0.000575382
0.000333669
0.00120165
0.000720713
0.00145802
0.00191779
0.000573932
0.000612787
0.00147001
0.00173592
0.00259595
0.00306312
0.00460255
0.00631812
0.0087466
2.36546e-05
0.000312506
0.000318732
0.000772345
-0.000447786
-0.000563196
0.000350395
0.00118548
0.000714549
0.00143762
0.00191177
0.000574052
0.000638945
0.00146718
0.00175251
0.00257939
0.00306774
0.00453916
0.00622001
0.00837973
3.03329e-05
0.00031322
0.000318708
0.000770037
-0.000435576
-0.000550248
0.000369174
0.00117077
0.000708755
0.00141633
0.00190795
0.00057408
0.000665762
0.00146412
0.00176848
0.00256403
0.00306445
0.00447625
0.00610164
0.00802317
3.73755e-05
0.000314039
0.000319458
0.000768233
-0.000422376
-0.00053662
0.000389414
0.00115756
0.000703195
0.00139401
0.00190591
0.000573778
0.000692759
0.00146152
0.0017829
0.00255041
0.00305232
0.00441455
0.00596365
0.00767105
4.47435e-05
0.000314948
0.000320626
0.000766368
-0.000408157
-0.000522492
0.000410598
0.00114556
0.000697761
0.0013706
0.0019052
0.000572954
0.000719423
0.0014602
0.00179442
0.00253937
0.00303086
0.00435267
0.00580838
0.00732007
5.24381e-05
0.000315895
0.000322031
0.000764072
-0.000392914
-0.000508013
0.000432276
0.0011344
0.000692379
0.0013461
0.00190542
0.000571602
0.000745154
0.00146095
0.00180176
0.00253164
0.00299938
0.00428801
0.00564102
0.00696852
6.04813e-05
0.000316832
0.000323624
0.000761119
-0.000376631
-0.000493277
0.000454093
0.00112378
0.000687012
0.00132056
0.00190619
0.000569991
0.000769112
0.00146464
0.00180399
0.00252701
0.00295804
0.00421773
0.0054671
0.0066153
6.89012e-05
0.000317722
0.00032543
0.000757379
-0.000359261
-0.000478326
0.000475776
0.00111353
0.000681625
0.00129413
0.00190715
0.000568554
0.00079035
0.00147201
0.00180067
0.00252444
0.00290778
0.00413836
0.00529145
0.00626084
7.77286e-05
0.00031854
0.000327495
0.000752782
-0.000340742
-0.000463155
0.000497098
0.00110356
0.000676178
0.00126701
0.00190792
0.000567773
0.00080802
0.00148359
0.00179153
0.00252272
0.00285028
0.0040457
0.00511723
0.00590718
8.6996e-05
0.000319257
0.000329872
0.0007473
-0.000321028
-0.000447719
0.000517869
0.0010939
0.000670629
0.00123944
0.00190803
0.000568195
0.000821332
0.00149974
0.00177656
0.00252
0.00278834
0.00393579
0.00494486
0.00555806
9.67363e-05
0.000319852
0.000332608
0.000740921
-0.000300112
-0.000431942
0.000537898
0.00108461
0.000664851
0.00121167
0.00190705
0.000570323
0.000829604
0.00152037
0.0017564
0.00251351
0.00272487
0.00380708
0.00477301
0.00521826
0.000106983
0.000320304
0.000335733
0.000733641
-0.000278016
-0.000415716
0.000556957
0.00107585
0.000658659
0.00118399
0.00190462
0.000574508
0.000832382
0.00154494
0.00173241
0.00250003
0.00266183
0.00365629
0.00459958
0.00489258
0.000117767
0.000320594
0.000339259
0.000725481
-0.000254795
-0.000398884
0.000574785
0.00106778
0.000651899
0.00115664
0.00190035
0.000580983
0.000829431
0.00157251
0.00170636
0.0024766
0.00259981
0.00347288
0.00442142
0.00458531
0.000129121
0.000320707
0.000343183
0.000716491
-0.000230568
-0.00038125
0.000591125
0.00106055
0.000644426
0.00112982
0.00189395
0.0005898
0.00082092
0.00160147
0.00167992
0.00244126
0.0025391
0.00326192
0.00423461
0.00429966
0.000141064
0.000320653
0.000347497
0.000706755
-0.000205525
-0.00036259
0.000605747
0.00105431
0.000636129
0.00110361
0.00188535
0.000600663
0.000807311
0.00163027
0.00165421
0.00239268
0.00248006
0.00305208
0.00403517
0.00403717
0.000153609
0.000320464
0.000352152
0.0006964
-0.000179864
-0.000342711
0.000618435
0.00104918
0.000626945
0.00107797
0.00187477
0.000613046
0.000789022
0.00165758
0.00163016
0.00233004
0.00242179
0.00285211
0.00382048
0.00379722
0.000166753
0.000320199
0.000357056
0.000685597
-0.000153768
-0.000321418
0.000628986
0.00104521
0.000616922
0.00105261
0.00186261
0.000626539
0.000766301
0.00168201
0.00160844
0.00225324
0.0023622
0.00265523
0.00358974
0.00357692
0.000180483
0.000319947
0.000362085
0.000674558
-0.000127464
-0.000298527
0.000637269
0.00104235
0.000606245
0.00102707
0.00184944
0.000640881
0.000739292
0.00170229
0.00158928
0.00216255
0.00229897
0.0024631
0.00334357
0.00337198
0.000194766
0.000319852
0.000367086
0.000663504
-0.000101147
-0.000273996
0.000643224
0.00104052
0.000595318
0.00100075
0.00183554
0.000655911
0.000707984
0.00171741
0.0015729
0.00205857
0.00222997
0.00227818
0.00308313
0.00317721
0.00020953
0.000320121
0.000371891
0.000652608
-7.49786e-05
-0.000247731
0.000646874
0.00103943
0.000584788
0.000972995
0.00182086
0.000671762
0.000672018
0.0017261
0.00155983
0.00194224
0.0021528
0.00210398
0.00281016
0.0029858
0.000224697
0.000320972
0.000376301
0.000642069
-4.91501e-05
-0.000219669
0.000648574
0.00103843
0.000575196
0.000943418
0.00180518
0.000688888
0.000631128
0.00172662
0.00155053
0.00181507
0.00206459
0.00194475
0.00252813
0.00278806
0.000240161
0.000322684
0.000380107
0.00063206
-2.37341e-05
-0.000190127
0.000648911
0.00103691
0.000566948
0.000911935
0.0017879
0.000707663
0.000585559
0.00171723
0.00154504
0.00167937
0.00196224
0.0018039
0.00224435
0.00257263
0.000255749
0.000325638
0.000383182
0.000622586
1.33551e-06
-0.000159488
0.000648506
0.00103438
0.00056025
0.000878559
0.00176814
0.000728221
0.000535726
0.00169614
0.00154322
0.0015385
0.00184438
0.00168161
0.00197043
0.00233125
0.000271287
0.000330176
0.000385451
0.000613577
2.62165e-05
-0.000128135
0.000648058
0.00103038
0.000554959
0.000843644
0.00174492
0.000750571
0.000482108
0.00166112
0.00154457
0.00139701
0.00170545
0.0015725
0.0017181
0.00206457
0.000286601
0.000336638
0.000386887
0.000604889
5.12765e-05
-9.67533e-05
0.00064809
0.00102472
0.000550682
0.000807657
0.0017176
0.000774388
0.000425459
0.00161038
0.00154743
0.00125987
0.00154609
0.00146841
0.00149603
0.00178374
0.000301468
0.000345358
0.000387577
0.000596201
7.71188e-05
-6.6113e-05
0.000648755
0.00101786
0.000546762
0.000770675
0.00168569
0.000798957
0.000366781
0.001543
0.00154958
0.00113152
0.00136921
0.00136138
0.00130627
0.00150541
0.000315698
0.000356587
0.000387699
0.00058698
0.000104602
-3.66475e-05
0.000649815
0.00101062
0.000542612
0.000732412
0.00164842
0.000823664
0.000306895
0.0014585
0.00154926
0.00101559
0.00117906
0.00124496
0.00114422
0.00124362
0.000329152
0.00037053
0.000387717
0.000576437
0.000134296
-8.3195e-06
0.000650606
0.00100408
0.000537982
0.000691886
0.00160507
0.000848082
0.000246612
0.00135695
0.00154468
0.000915149
0.000979547
0.00111531
0.00100381
0.00100658
0.000341711
0.000387438
0.000388387
0.000563691
0.000166219
1.92236e-05
0.000650064
0.000999409
0.000532994
0.000647874
0.00155489
0.000871411
0.000187528
0.00123908
0.00153329
0.000833043
0.000774415
0.000969336
0.000879649
0.000797746
0.000353329
0.000408615
0.000390676
0.000548143
0.000200087
4.67877e-05
0.000646943
0.00099681
0.00052838
0.00059944
0.00149624
0.000892332
0.000132287
0.00110694
0.00151164
0.000771006
0.000568635
0.000803353
0.000766543
0.000619232
0.00036401
0.000432424
0.000395772
0.000529522
0.000234712
7.55896e-05
0.000640372
0.000995595
0.000525319
0.000545819
0.0014276
0.000910812
8.40581e-05
0.000962513
0.00147585
0.000729682
0.00036979
0.000614203
0.000657371
0.00047317
0.000373856
0.000456411
0.000404734
0.000507794
0.000268342
0.000106665
0.000629932
0.000994545
0.000524824
0.000487082
0.00134846
0.000928461
4.58095e-05
0.000807339
0.00142114
0.000707751
0.000187085
0.000402056
0.000541909
0.00035878
0.000383098
0.000481008
0.000418324
0.000483699
0.00029905
0.000140334
0.000615491
0.000991696
0.000527902
0.000425043
0.00125876
0.000942489
1.98561e-05
0.000645024
0.00134237
0.000699507
2.90123e-05
0.000172515
0.0004087
0.000269012
0.000392062
0.000505733
0.000437138
0.000458602
0.000324852
0.000176146
0.000597144
0.000984659
0.000535357
0.000363055
0.00115891
0.000950271
7.24829e-06
0.000480743
0.0012363
0.000696508
-9.80298e-05
-6.42614e-05
0.000249352
0.000191709
0.000401216
0.000529645
0.000461299
0.000434273
0.000344242
0.000212874
0.000575333
0.000971094
0.000546938
0.000305178
0.00105002
0.000948332
7.71426e-06
0.000320448
0.00110323
0.000689771
-0.000191943
-0.000296442
6.1231e-05
0.000112765
0.000411083
0.000552061
0.000490461
0.00041251
0.000356213
0.000248794
0.000550684
0.00094859
0.000561353
0.000255466
0.00093461
0.00093387
1.97933e-05
0.000169776
0.00094577
0.000670573
-0.000254514
-0.000512445
-0.000152517
1.88887e-05
0.000422138
0.000572857
0.000524017
0.000393009
0.000360257
0.000282153
0.000523734
0.000914315
0.000575977
0.000218088
0.000816926
0.000904721
4.00694e-05
3.34191e-05
0.000768506
0.000631795
-0.000290235
-0.000701998
-0.000384314
-0.000100052
0.000434797
0.000593399
0.000560657
0.000384031
0.000357065
0.000311444
0.000495153
0.00086583
0.000587341
0.000196112
0.000701686
0.00085971
6.37403e-05
-8.52449e-05
0.000577639
0.000568187
-0.000306397
-0.000856864
-0.000623061
-0.000249492
0.000449559
0.000609939
0.000598584
0.000383809
0.000347943
0.000334385
0.000466342
0.000801064
0.000592838
0.000189159
0.000592822
0.000799465
8.52459e-05
-0.000184402
0.000380467
0.000476714
-0.000313136
-0.000972094
-0.000854803
-0.000429075
0.000466944
0.000624083
0.000635938
0.000391899
0.000333641
0.000347695
0.000439831
0.000734163
0.000590234
0.000191165
0.000492464
0.00072588
0.000100367
-0.000264982
0.000184532
0.00035755
-0.000321821
-0.00104818
-0.00106516
-0.0006323
0.000487149
0.000635968
0.000670385
0.000406948
0.000315019
0.000350905
0.000419383
0.000670768
0.000576582
0.000194356
0.000401261
0.000641948
0.000106668
-0.000328554
-3.88265e-06
0.000214425
-0.000342833
-0.00109228
-0.00124225
-0.000846876
0.00051027
0.000646101
0.000699663
0.000428073
0.000295214
0.00034454
0.000404617
0.000612361
0.000551208
0.000193901
0.000318688
0.000551115
0.00010302
-0.000377105
-0.000179559
5.32535e-05
-0.00038331
-0.00111577
-0.0013795
-0.00105665
0.000536324
0.00065515
0.000722267
0.000453929
0.000278566
0.000329058
0.000390531
0.000560026
0.00051823
0.000188562
0.000243162
0.000455318
8.83622e-05
-0.000412952
-0.000338128
-0.00011956
-0.000446578
-0.00113065
-0.00147858
-0.0012463
0.000565025
0.000663922
0.000737495
0.000482692
0.000267611
0.000305233
0.000372401
0.000513696
0.000483173
0.000178551
0.000171997
0.000355933
6.23533e-05
-0.000439168
-0.000476374
-0.000296451
-0.000532611
-0.0011475
-0.00154677
-0.00140635
0.00059598
0.00067342
0.000745135
0.000511326
0.000263613
0.000275399
0.000347586
0.000472849
0.000449032
0.000164697
0.000104368
0.00025348
2.44978e-05
-0.000459282
-0.000592773
-0.000469451
-0.000638131
-0.00117342
-0.00159336
-0.00153428
0.000628585
0.000684477
0.000745619
0.000536762
0.000267056
0.000243291
0.000314682
0.000433562
0.000416606
0.000149824
4.13519e-05
0.000148787
-2.65411e-05
-0.000477666
-0.000687341
-0.000631948
-0.000757545
-0.00121199
-0.00162713
-0.00163223
0.000661937
0.000697635
0.000740326
0.000556737
0.000277271
0.000213166
0.000273608
0.00039064
0.000385488
0.0001362
-1.6167e-05
4.41698e-05
-9.11247e-05
-0.000498865
-0.000761835
-0.000777976
-0.00088397
-0.0012641
-0.00165563
-0.00170504
0.000695034
0.000713076
0.000731059
0.00056589
0.000292304
0.000188654
0.000221802
0.000340172
0.000353627
0.000124924
-6.59867e-05
-5.7916e-05
-0.000167808
-0.000527581
-0.000821777
-0.000903853
-0.00100997
-0.00132799
-0.00168484
-0.00175896
0.000726923
0.000730502
0.000720074
0.000566738
0.00030873
0.000171771
0.000169901
0.000281072
0.000316303
0.000115116
-0.000105218
-0.000154331
-0.000254082
-0.000566703
-0.00087307
-0.00101029
-0.00112869
-0.00139905
-0.00171783
-0.00180127
0.000756687
0.000749203
0.000709715
0.000560196
0.00032263
0.000162725
0.00012282
0.000214315
0.00026898
0.00010406
-0.00013335
-0.000239892
-0.000345854
-0.000617375
-0.00092064
-0.00110017
-0.00123625
-0.00147151
-0.00175356
-0.00183807
0.000783755
0.000768233
0.000701692
0.000547736
0.000330858
0.00015978
8.26326e-05
0.00014264
0.000210297
8.69193e-05
-0.000152998
-0.000309717
-0.000437341
-0.000679296
-0.000968596
-0.00117707
-0.00133264
-0.00154219
-0.00178897
-0.00187114
0.00080789
0.000786474
0.000696714
0.000531242
0.000331337
0.000159543
5.13213e-05
7.19446e-05
0.000141415
5.88788e-05
-0.000167555
-0.000362973
-0.000521053
-0.000748027
-0.00102036
-0.00124401
-0.00141853
-0.00161072
-0.00182251
-0.00189827
0.000829041
0.000802815
0.000694832
0.000513202
0.000323162
0.000161109
2.88857e-05
8.14272e-06
6.46937e-05
1.72098e-05
-0.000182207
-0.000402126
-0.000591522
-0.000817257
-0.00107724
-0.00130488
-0.00149347
-0.00167664
-0.00185526
-0.00191747
0.000847341
0.00081651
0.000694843
0.000496013
0.00030689
0.000154437
1.3687e-05
-4.54349e-05
-1.43685e-05
-3.77522e-05
-0.000203255
-0.000430058
-0.000646781
-0.000880238
-0.00113524
-0.00136409
-0.00155844
-0.00173768
-0.00188905
-0.0019303
0.000862971
0.000826985
0.000695184
0.000480771
0.000284717
0.000140508
9.61324e-07
-8.85449e-05
-8.86785e-05
-0.000102503
-0.000235521
-0.000451995
-0.000687353
-0.000932314
-0.0011882
-0.00142157
-0.0016171
-0.00179154
-0.00192375
-0.00194084
0.000875985
0.00083395
0.000694334
0.000467733
0.000259544
0.000118599
-1.38793e-05
-0.000122571
-0.000153705
-0.000171682
-0.0002789
-0.000475371
-0.000715969
-0.000971938
-0.00123164
-0.00147175
-0.00167131
-0.00183834
-0.00195662
-0.00195216
0.000886292
0.000837469
0.000690694
0.000456221
0.000234197
8.97815e-05
-3.39958e-05
-0.000150133
-0.000208264
-0.000239004
-0.000329288
-0.000503899
-0.00073717
-0.00099918
-0.00126405
-0.00150999
-0.00171752
-0.00187941
-0.00198492
-0.00196436
0.000893595
0.000837767
0.00068349
0.000444727
0.000209972
5.586e-05
-6.09016e-05
-0.000175515
-0.000252879
-0.00030005
-0.000382896
-0.000536837
-0.000755642
-0.00101533
-0.0012845
-0.00153476
-0.00175022
-0.00191286
-0.00200692
-0.00197415
0.000897422
0.000835034
0.00067261
0.000431458
0.000187015
1.96e-05
-9.46522e-05
-0.000203055
-0.000289571
-0.000351531
-0.000434797
-0.000571811
-0.000773199
-0.00102305
-0.00129202
-0.00154578
-0.00176641
-0.0019335
-0.00202034
-0.00197721
0.00089732
0.000829301
0.000658196
0.000414395
0.00016415
-1.63748e-05
-0.000133507
-0.000235166
-0.000322316
-0.000393797
-0.000479741
-0.000605096
-0.000788569
-0.00102384
-0.00128651
-0.00154184
-0.00176605
-0.00193791
-0.00202283
-0.00197116
0.000892889
0.000820083
0.000640625
0.000393061
0.000139621
-5.22119e-05
-0.000175888
-0.000271604
-0.000354456
-0.000429608
-0.000516051
-0.000632583
-0.000799152
-0.00101661
-0.00126763
-0.00152029
-0.00174752
-0.00192391
-0.00201088
-0.00195426
0.000884042
0.000807107
0.000619685
0.000367477
0.000111954
-8.90743e-05
-0.00022115
-0.000312579
-0.00038736
-0.00046065
-0.000544591
-0.000651423
-0.000801473
-0.000999155
-0.00123442
-0.00147903
-0.00170657
-0.0018877
-0.00197933
-0.00192275
0.00087043
0.000790141
0.000595367
0.000337256
7.96792e-05
-0.000127886
-0.000268478
-0.000358122
-0.000423342
-0.000489045
-0.000566092
-0.000660406
-0.000791834
-0.000967413
-0.00118323
-0.00141515
-0.00163829
-0.00182283
-0.00192111
-0.00186972
0.000851832
0.00076861
0.000567698
0.000302755
4.16623e-05
-0.000171054
-0.000318806
-0.000408009
-0.000463933
-0.000517437
-0.000582011
-0.000660348
-0.000769295
-0.00091704
-0.00110637
-0.00132045
-0.00153464
-0.00171969
-0.00182595
-0.001785
0.000827832
0.000742247
0.000536177
0.000264
-2.47089e-06
-0.000220398
-0.000374451
-0.000463549
-0.000510906
-0.000549079
-0.000594396
-0.000651465
-0.000733462
-0.000845729
-0.000996867
-0.00118052
-0.00137758
-0.00156032
-0.00167817
-0.00165589
0.000798212
0.000710019
0.000500912
0.000220439
-5.38263e-05
-0.000277225
-0.000437942
-0.000527943
-0.000567267
-0.000588643
-0.000608278
-0.00063486
-0.00068346
-0.000752812
-0.000851542
-0.000984437
-0.00114024
-0.00129974
-0.00142388
-0.00143816
0.000765511
0.000674061
0.000459103
0.000169599
-0.000113114
-0.000342446
-0.000510751
-0.000606706
-0.000642119
-0.00064583
-0.000632399
-0.000612987
-0.000612166
-0.000634068
-0.000676628
-0.000748414
-0.000841301
-0.000936709
-0.0010108
-0.00100244
0.000729901
0.000635586
0.000409687
0.000111119
-0.000180136
-0.000417199
-0.000594018
-0.000700286
-0.000744016
-0.000744098
-0.000706298
-0.000620393
-0.000499862
-0.000368999
-0.000260811
-0.000222773
-0.000289936
-0.000439467
-0.000612615
-0.000740394
0.000688026
0.000586413
0.000355941
5.23747e-05
-0.00024811
-0.00049555
-0.000687081
-0.000810193
-0.000870635
-0.000884919
-0.00087926
-0.000866664
-0.000803019
-0.000589726
-0.000164344
0.000372938
0.000867248
0.00122603
0.00144233
0.00152403
0.000640256
0.000524345
0.000287851
-1.88518e-05
-0.000322036
-0.000571227
-0.000765579
-0.00090371
-0.000988231
-0.00101209
-0.000907155
-0.00061552
-0.000220747
0.00016699
0.000483726
0.000734283
0.000941191
0.00112829
0.00128207
0.00133193
0.000595281
0.000488855
0.000229867
-0.00010993
-0.00045569
-0.000753689
-0.000981936
-0.00109411
-0.00102308
-0.00078672
-0.000488177
-0.000203702
4.30321e-05
0.000301493
0.000596047
0.000929161
0.00129114
0.00163034
0.00188315
0.00196386
0.000503971
0.00038618
0.000184815
-8.48726e-05
-0.000376293
-0.000619456
-0.000774097
-0.000829117
-0.000793647
-0.00071221
-0.000632345
-0.00055432
-0.000484132
-0.00037465
-0.000139992
0.000267184
0.000858587
0.00152393
0.00207811
0.00235268
0.000479053
0.000342895
5.33517e-05
-0.000286533
-0.00058471
-0.000774958
-0.00084925
-0.000843937
-0.000762554
-0.000599884
-0.000388009
-0.000128978
0.00017298
0.000487353
0.000818735
0.00115269
0.00147994
0.00176682
0.00195603
0.00197769
0.000423219
0.000307565
8.62251e-05
-0.000205586
-0.000525602
-0.000806469
-0.000961294
-0.00095283
-0.000797574
-0.000540804
-0.000275283
-5.11004e-05
0.000157686
0.000353994
0.000568958
0.000827688
0.00111854
0.00140713
0.00162477
0.00169014
0.0139973
0.00787713
-4.07401e-05
-0.00570238
-0.0071309
-0.00628187
-0.00511746
-0.00416003
-0.00346228
-0.00296474
-0.00260875
-0.00241029
-0.00236908
-0.00237679
-0.00228353
-0.00207918
-0.00188923
-0.00178209
-0.00174185
-0.00172988
-0.00167634
-0.00155193
-0.00141837
-0.00132422
-0.00123828
-0.00111206
-0.00094418
-0.000781218
-0.00066232
-0.000564371
-0.000446929
-0.000319216
-0.000218165
-0.000145471
-7.16227e-05
1.55593e-05
0.000102691
0.000184061
0.000277653
0.000393612
0.000513497
0.000622798
0.000734651
0.000865678
0.00100255
0.00112503
0.00124276
0.00137126
0.00149396
0.00160362
0.00172271
0.00186036
0.00199356
0.00213218
0.00229248
0.00244562
0.0025898
0.00274337
0.00289446
0.00304556
0.00321176
0.00338805
0.0035616
0.00373909
0.00391961
0.0041027
0.00429078
0.00449001
0.00469451
0.00489991
0.00511329
0.00532926
0.00554936
0.00577324
0.00600532
0.00624567
0.00649189
0.0067426
0.0069894
0.00724592
0.00750671
0.00777574
0.0080531
0.00833228
0.00861989
0.00891248
0.00920358
0.00950967
0.00981734
0.0101327
0.0104566
0.010785
0.0111171
0.0114624
0.0118084
0.012156
0.0125079
0.0128555
0.0131245
0.0133894
0.0132536
0.00773185
5.15961e-05
-0.00555774
-0.00705049
-0.0062459
-0.00509633
-0.004145
-0.00345047
-0.00295494
-0.00260016
-0.0024026
-0.00236247
-0.00237142
-0.00227914
-0.00207529
-0.00188561
-0.00177875
-0.00173882
-0.00172723
-0.00167405
-0.00154981
-0.00141631
-0.00132229
-0.00123654
-0.00111048
-0.000942683
-0.000779757
-0.000660937
-0.000563117
-0.00044577
-0.000318091
-0.000217072
-0.000144445
-7.06675e-05
1.64696e-05
0.00010357
0.000184894
0.00027843
0.00039435
0.000514211
0.000623476
0.000735281
0.00086627
0.00100313
0.00112559
0.00124328
0.00137176
0.00149445
0.00160408
0.00172314
0.00186077
0.00199395
0.00213255
0.00229283
0.00244597
0.00259013
0.00274369
0.00289477
0.00304585
0.00321204
0.00338831
0.00356186
0.00373933
0.00391985
0.00410293
0.004291
0.00449022
0.00469472
0.00490011
0.00511348
0.00532945
0.00554954
0.00577342
0.00600549
0.00624583
0.00649204
0.00674275
0.00698955
0.00724606
0.00750685
0.00777587
0.00805322
0.0083324
0.00862001
0.0089126
0.00920369
0.00950978
0.00981744
0.0101328
0.0104567
0.0107851
0.0111171
0.0114624
0.0118084
0.012156
0.012508
0.0128556
0.0131246
0.0133894
0.0125477
0.0075666
0.000227408
-0.00529119
-0.00690846
-0.00619272
-0.00506985
-0.00412678
-0.00343654
-0.0029439
-0.00259122
-0.00239495
-0.00235556
-0.00236524
-0.00227387
-0.00207088
-0.00188191
-0.00177554
-0.0017359
-0.00172466
-0.00167185
-0.00154783
-0.00141446
-0.00132058
-0.00123498
-0.00110904
-0.000941297
-0.00077841
-0.000659681
-0.000561988
-0.000444719
-0.000317069
-0.000216093
-0.000143543
-6.98313e-05
1.72673e-05
0.000104334
0.000185611
0.000279101
0.000395001
0.000514843
0.000624069
0.000735829
0.000866793
0.00100364
0.00112608
0.00124373
0.00137219
0.00149487
0.00160448
0.0017235
0.00186112
0.0019943
0.00213286
0.00229315
0.00244628
0.00259042
0.00274396
0.00289504
0.0030461
0.00321227
0.00338855
0.00356208
0.00373955
0.00392005
0.00410313
0.00429119
0.00449041
0.00469489
0.00490028
0.00511365
0.00532961
0.0055497
0.00577357
0.00600563
0.00624596
0.00649218
0.00674288
0.00698967
0.00724618
0.00750696
0.00777598
0.00805333
0.00833251
0.00862011
0.00891269
0.00920378
0.00950987
0.00981753
0.0101329
0.0104568
0.0107852
0.0111172
0.0114625
0.0118085
0.0121561
0.012508
0.0128557
0.0131247
0.0133895
0.0118729
0.00739662
0.000456101
-0.00494285
-0.00670297
-0.0061097
-0.00502709
-0.00409815
-0.00341573
-0.00292844
-0.00258011
-0.00238653
-0.00234754
-0.00235674
-0.0022658
-0.0020644
-0.00187711
-0.00177158
-0.00173205
-0.00172095
-0.00166867
-0.00154531
-0.00141242
-0.00131872
-0.00123317
-0.00110733
-0.000939735
-0.000776946
-0.000658285
-0.000560682
-0.000443508
-0.000315938
-0.000215033
-0.000142562
-6.89275e-05
1.81065e-05
0.000105124
0.000186357
0.000279813
0.000395694
0.000515512
0.000624697
0.000736413
0.000867354
0.00100419
0.00112659
0.00124421
0.00137266
0.00149532
0.00160489
0.00172388
0.0018615
0.00199465
0.00213319
0.00229347
0.00244661
0.00259072
0.00274425
0.00289531
0.00304635
0.00321251
0.00338879
0.00356231
0.00373977
0.00392027
0.00410333
0.00429138
0.00449059
0.00469508
0.00490045
0.00511381
0.00532977
0.00554986
0.00577372
0.00600578
0.0062461
0.00649231
0.00674301
0.0069898
0.0072463
0.00750708
0.00777609
0.00805344
0.00833261
0.00862021
0.00891279
0.00920388
0.00950996
0.00981762
0.0101329
0.0104568
0.0107853
0.0111173
0.0114626
0.0118086
0.0121562
0.0125081
0.0128558
0.0131248
0.0133895
0.0112125
0.00721541
0.000700085
-0.00456689
-0.00646903
-0.00601064
-0.00497442
-0.00406112
-0.00338786
-0.00290762
-0.00256584
-0.00237667
-0.00233796
-0.00234523
-0.00225403
-0.0020551
-0.00187082
-0.00176668
-0.00172682
-0.00171517
-0.00166342
-0.00154147
-0.00140975
-0.00131638
-0.00123072
-0.00110502
-0.00093784
-0.000775322
-0.000656652
-0.000559013
-0.000441958
-0.000314565
-0.000213758
-0.000141338
-6.78063e-05
1.90867e-05
0.000106012
0.000187216
0.000280653
0.000396496
0.000516272
0.000625423
0.00073711
0.000868022
0.00100483
0.0011272
0.00124478
0.0013732
0.00149584
0.00160535
0.00172431
0.00186192
0.00199506
0.00213355
0.00229384
0.00244698
0.00259105
0.00274457
0.00289562
0.00304663
0.00321278
0.00338905
0.00356257
0.00374001
0.0039205
0.00410355
0.00429159
0.00449079
0.00469528
0.00490064
0.005114
0.00532995
0.00555003
0.00577388
0.00600593
0.00624626
0.00649246
0.00674316
0.00698994
0.00724643
0.00750721
0.00777621
0.00805356
0.00833272
0.00862032
0.0089129
0.00920398
0.00951005
0.00981772
0.010133
0.0104569
0.0107853
0.0111174
0.0114627
0.0118087
0.0121563
0.0125082
0.0128559
0.013125
0.0133895
0.0105692
0.00701429
0.000934651
-0.00418633
-0.00622186
-0.00590503
-0.00491912
-0.00402042
-0.00335543
-0.0028827
-0.00254885
-0.00236538
-0.00232696
-0.0023312
-0.0022391
-0.00204333
-0.00186326
-0.00176104
-0.00172033
-0.00170716
-0.00165559
-0.00153571
-0.00140599
-0.00131318
-0.00122728
-0.00110181
-0.00093549
-0.000773563
-0.000654814
-0.000556952
-0.000440033
-0.000312936
-0.000212203
-0.000139726
-6.63105e-05
2.03124e-05
0.000107067
0.000188264
0.000281689
0.000397439
0.000517132
0.000626274
0.000737962
0.000868833
0.00100559
0.00112793
0.00124548
0.00137385
0.00149643
0.0016059
0.00172482
0.00186241
0.00199552
0.00213399
0.00229428
0.0024474
0.00259144
0.00274495
0.00289597
0.00304695
0.00321309
0.00338936
0.00356285
0.00374028
0.00392076
0.0041038
0.00429182
0.00449102
0.0046955
0.00490085
0.0051142
0.00533015
0.00555022
0.00577406
0.0060061
0.00624642
0.00649263
0.00674332
0.00699009
0.00724658
0.00750735
0.00777634
0.00805369
0.00833285
0.00862044
0.00891302
0.00920409
0.00951016
0.00981783
0.0101331
0.010457
0.0107854
0.0111175
0.0114628
0.0118088
0.0121564
0.0125083
0.012856
0.0131252
0.0133895
0.00994816
0.00678678
0.001148
-0.00380629
-0.00596192
-0.00579297
-0.00486262
-0.00397774
-0.00331968
-0.00285453
-0.00252951
-0.00235271
-0.00231486
-0.0023156
-0.00222227
-0.00203004
-0.00185495
-0.00175505
-0.00171305
-0.00169741
-0.00164549
-0.00152799
-0.00140086
-0.00130878
-0.00122253
-0.00109748
-0.000932538
-0.000771624
-0.000652781
-0.000554534
-0.000437814
-0.000311161
-0.000210426
-0.000137669
-6.43049e-05
2.1916e-05
0.000108401
0.000189613
0.000283027
0.000398583
0.00051811
0.000627261
0.000738986
0.000869798
0.00100649
0.00112882
0.00124635
0.00137466
0.00149716
0.00160657
0.00172544
0.00186299
0.00199607
0.00213451
0.0022948
0.0024479
0.00259192
0.0027454
0.00289638
0.00304733
0.00321345
0.00338971
0.00356319
0.00374061
0.00392106
0.00410408
0.00429209
0.00449127
0.00469575
0.00490109
0.00511443
0.00533037
0.00555043
0.00577426
0.0060063
0.00624661
0.00649281
0.0067435
0.00699026
0.00724673
0.00750751
0.00777649
0.00805384
0.00833299
0.00862057
0.00891315
0.00920421
0.00951028
0.00981794
0.0101332
0.0104571
0.0107855
0.0111176
0.0114629
0.0118089
0.0121564
0.0125084
0.0128562
0.0131255
0.0133896
0.00935084
0.00653157
0.00133777
-0.00342452
-0.00568526
-0.00567182
-0.00480478
-0.00393402
-0.00328139
-0.0028235
-0.00250795
-0.00233867
-0.00230184
-0.00229906
-0.00220437
-0.00201587
-0.00184616
-0.00174883
-0.00170536
-0.00168665
-0.00163394
-0.00151882
-0.00139444
-0.00130309
-0.00121641
-0.00109196
-0.000928898
-0.000769403
-0.000650503
-0.000551786
-0.000435397
-0.000309396
-0.000208597
-0.000135273
-6.17937e-05
2.39705e-05
0.000110118
0.000191385
0.000284789
0.000400024
0.000519264
0.000628413
0.000740191
0.000870898
0.0010075
0.00112988
0.00124744
0.00137565
0.00149805
0.00160741
0.00172621
0.00186368
0.00199673
0.00213515
0.00229542
0.00244851
0.0025925
0.00274594
0.00289688
0.0030478
0.0032139
0.00339014
0.0035636
0.00374099
0.00392142
0.00410441
0.0042924
0.00449157
0.00469604
0.00490136
0.00511469
0.00533062
0.00555067
0.00577449
0.00600652
0.00624682
0.00649302
0.0067437
0.00699045
0.00724691
0.00750768
0.00777666
0.00805401
0.00833315
0.00862073
0.00891329
0.00920435
0.00951041
0.00981807
0.0101334
0.0104573
0.0107856
0.0111177
0.011463
0.011809
0.0121566
0.0125085
0.0128564
0.0131258
0.0133897
0.00877874
0.00625549
0.00150565
-0.00304033
-0.0053907
-0.00554051
-0.00474609
-0.0038905
-0.00324131
-0.00278972
-0.00248407
-0.0023232
-0.00228804
-0.00228185
-0.00218569
-0.00200097
-0.00183686
-0.00174229
-0.00169735
-0.00167536
-0.00162159
-0.00150875
-0.00138708
-0.00129631
-0.0012091
-0.0010854
-0.000924602
-0.000766841
-0.000647926
-0.000548708
-0.000432813
-0.000307718
-0.000206876
-0.000132749
-5.89398e-05
2.64186e-05
0.000112244
0.000193637
0.000287048
0.00040185
0.000520678
0.000629795
0.000741604
0.000872117
0.00100857
0.00113104
0.00124869
0.00137683
0.00149914
0.00160847
0.00172717
0.00186452
0.0019975
0.00213589
0.00229613
0.00244923
0.00259321
0.0027466
0.00289748
0.00304837
0.00321444
0.00339065
0.0035641
0.00374146
0.00392185
0.00410481
0.00429278
0.00449193
0.00469638
0.00490167
0.00511499
0.00533091
0.00555094
0.00577475
0.00600677
0.00624707
0.00649325
0.00674393
0.00699067
0.00724712
0.00750789
0.00777686
0.00805421
0.00833333
0.0086209
0.00891346
0.00920451
0.00951056
0.00981822
0.0101335
0.0104574
0.0107858
0.0111178
0.0114631
0.0118091
0.0121567
0.0125087
0.0128566
0.0131263