/*--------------------------------*- C++ -*----------------------------------*\
| =========                 |                                                 |
| \\      /  F ield         | OpenFOAM: The Open Source CFD Toolbox           |
|  \\    /   O peration     | Version:  3.0.1                                 |
|   \\  /    A nd           | Web:      www.OpenFOAM.org                      |
|    \\/     M anipulation  |                                                 |
\*---------------------------------------------------------------------------*/
FoamFile
{
    version     2.0;
    format      ascii;
    class       surfaceScalarField;
    location    "2.1";
    object      phi;
}
// * * * * * * * * * * * * * * * * * * * * * * * * * * * * * * * * * * * * * //

dimensions      [0 3 -1 0 0 0 0];

internalField   nonuniform List<scalar> 
19000
(
1.17547e-06
-2.84593e-07
1.20108e-06
9.57179e-08
1.18207e-06
5.53767e-07
1.10983e-06
1.9047e-07
1.15679e-06
-5.14285e-07
1.20548e-06
-4.55673e-07
1.18495e-06
-3.83773e-07
1.17922e-06
3.86147e-07
1.17269e-06
4.72136e-07
1.1385e-06
2.304e-07
1.15297e-06
2.92464e-07
1.12723e-06
-3.43552e-07
1.15843e-06
-1.71117e-07
1.14682e-06
-1.79814e-07
1.15731e-06
-2.36472e-07
1.15814e-06
-1.5364e-07
1.16099e-06
-1.939e-07
1.15684e-06
-6.27755e-08
1.15644e-06
-2.9442e-08
5.89537e-08
1.129e-06
1.23195e-06
-2.92277e-07
1.2593e-06
6.83668e-08
1.23723e-06
5.75833e-07
1.17073e-06
2.56968e-07
1.21475e-06
-5.58303e-07
1.26103e-06
-5.01951e-07
1.24205e-06
-3.64794e-07
1.24047e-06
3.87729e-07
1.22756e-06
4.85045e-07
1.20077e-06
2.57188e-07
1.20593e-06
2.87303e-07
1.18845e-06
-3.26075e-07
1.20883e-06
-1.91489e-07
1.21179e-06
-1.82779e-07
1.21002e-06
-2.34701e-07
1.22613e-06
-1.69747e-07
1.21094e-06
-1.78711e-07
1.22748e-06
-7.93152e-08
1.20003e-06
-1.98841e-09
4.72718e-08
1.21171e-06
1.28938e-06
-2.98878e-07
1.31923e-06
3.85232e-08
1.29552e-06
5.99538e-07
1.2402e-06
3.1229e-07
1.27439e-06
-5.92491e-07
1.31934e-06
-5.469e-07
1.30122e-06
-3.46673e-07
1.30298e-06
3.85962e-07
1.28476e-06
5.03266e-07
1.26784e-06
2.74107e-07
1.26552e-06
2.8963e-07
1.25734e-06
-3.17896e-07
1.26504e-06
-1.99192e-07
1.27856e-06
-1.96302e-07
1.27026e-06
-2.26396e-07
1.28727e-06
-1.86761e-07
1.2727e-06
-1.64135e-07
1.28124e-06
-8.78544e-08
1.26771e-06
1.15361e-08
5.69141e-08
1.25807e-06
1.3478e-06
-3.02578e-07
1.37874e-06
7.58173e-09
1.35679e-06
6.21496e-07
1.31505e-06
3.54023e-07
1.33555e-06
-6.12991e-07
1.37769e-06
-5.89039e-07
1.36168e-06
-3.30661e-07
1.36352e-06
3.84124e-07
1.34531e-06
5.21471e-07
1.33494e-06
2.84482e-07
1.33077e-06
2.93803e-07
1.32694e-06
-3.14066e-07
1.32798e-06
-2.00234e-07
1.34234e-06
-2.10669e-07
1.33678e-06
-2.20831e-07
1.34671e-06
-1.96693e-07
1.33954e-06
-1.56966e-07
1.34013e-06
-8.84463e-08
1.33418e-06
1.7492e-08
6.99586e-08
1.32113e-06
1.4081e-06
-3.02321e-07
1.43707e-06
-2.13904e-08
1.42083e-06
6.3773e-07
1.39233e-06
3.82527e-07
1.39891e-06
-6.1957e-07
1.43514e-06
-6.25273e-07
1.42373e-06
-3.19252e-07
1.42332e-06
3.84544e-07
1.40952e-06
5.35267e-07
1.40279e-06
2.91214e-07
1.40038e-06
2.96213e-07
1.39703e-06
-3.10724e-07
1.39539e-06
-1.98594e-07
1.40667e-06
-2.21947e-07
1.40485e-06
-2.19004e-07
1.41008e-06
-2.01924e-07
1.40614e-06
-1.53026e-07
1.40473e-06
-8.7037e-08
1.39985e-06
2.2373e-08
8.17743e-08
1.38803e-06
1.47163e-06
-2.98279e-07
1.4954e-06
-4.51535e-08
1.48779e-06
6.45342e-07
1.47057e-06
3.99739e-07
1.46591e-06
-6.14907e-07
1.49326e-06
-6.52618e-07
1.48747e-06
-3.13467e-07
1.48552e-06
3.8649e-07
1.47742e-06
5.4337e-07
1.47338e-06
2.95259e-07
1.47342e-06
2.96167e-07
1.46927e-06
-3.06566e-07
1.46588e-06
-1.95207e-07
1.47387e-06
-2.29936e-07
1.47351e-06
-2.18649e-07
1.47674e-06
-2.05151e-07
1.47349e-06
-1.49781e-07
1.47111e-06
-8.46534e-08
1.46701e-06
2.64782e-08
9.33324e-08
1.45545e-06
1.53958e-06
-2.91638e-07
1.55619e-06
-6.1771e-08
1.55774e-06
6.43796e-07
1.54971e-06
4.07768e-07
1.53758e-06
-6.0278e-07
1.55465e-06
-6.69688e-07
1.55293e-06
-3.11749e-07
1.55181e-06
3.87612e-07
1.54887e-06
5.46309e-07
1.54753e-06
2.966e-07
1.54946e-06
2.94238e-07
1.54438e-06
-3.01482e-07
1.53943e-06
-1.90257e-07
1.54454e-06
-2.35045e-07
1.54406e-06
-2.18178e-07
1.54583e-06
-2.06916e-07
1.54304e-06
-1.46988e-07
1.53915e-06
-8.07637e-08
1.536e-06
2.9622e-08
1.04857e-07
1.52448e-06
1.61237e-06
-2.83878e-07
1.62185e-06
-7.12503e-08
1.63077e-06
6.34873e-07
1.63011e-06
4.08431e-07
1.61395e-06
-5.86623e-07
1.62125e-06
-6.76991e-07
1.62073e-06
-3.11221e-07
1.62219e-06
3.86151e-07
1.62361e-06
5.44886e-07
1.62505e-06
2.95164e-07
1.62823e-06
2.91055e-07
1.62236e-06
-2.95612e-07
1.61628e-06
-1.84182e-07
1.61875e-06
-2.37508e-07
1.61759e-06
-2.17024e-07
1.61752e-06
-2.06839e-07
1.61526e-06
-1.44737e-07
1.60977e-06
-7.52649e-08
1.60739e-06
3.19996e-08
1.15925e-07
1.59632e-06
1.68981e-06
-2.76114e-07
1.6937e-06
-7.51413e-08
1.70711e-06
6.21461e-07
1.71212e-06
4.03428e-07
1.69438e-06
-5.68888e-07
1.69371e-06
-6.76319e-07
1.69199e-06
-3.09498e-07
1.69638e-06
3.81758e-07
1.70144e-06
5.39829e-07
1.7055e-06
2.91103e-07
1.70957e-06
2.86982e-07
1.70307e-06
-2.8911e-07
1.69649e-06
-1.776e-07
1.6965e-06
-2.37522e-07
1.69466e-06
-2.15181e-07
1.69236e-06
-2.04536e-07
1.69053e-06
-1.42912e-07
1.68363e-06
-6.83641e-08
1.6818e-06
3.38249e-08
1.25965e-07
1.67176e-06
1.77147e-06
-2.68866e-07
1.77188e-06
-7.55443e-08
1.78714e-06
6.06199e-07
1.79612e-06
3.94449e-07
1.77825e-06
-5.51018e-07
1.77183e-06
-6.69901e-07
1.76783e-06
-3.05501e-07
1.77459e-06
3.74999e-07
1.78249e-06
5.31934e-07
1.78876e-06
2.84827e-07
1.79356e-06
2.82179e-07
1.78655e-06
-2.82092e-07
1.78003e-06
-1.71088e-07
1.77785e-06
-2.35333e-07
1.77556e-06
-2.12895e-07
1.7709e-06
-1.99872e-07
1.76929e-06
-1.41304e-07
1.76127e-06
-6.0344e-08
1.75972e-06
3.53757e-08
1.34403e-07
1.75128e-06
1.85708e-06
-2.622e-07
1.85578e-06
-7.42396e-08
1.8712e-06
5.90779e-07
1.88264e-06
3.83003e-07
1.86528e-06
-5.33649e-07
1.85516e-06
-6.59781e-07
1.84892e-06
-2.99262e-07
1.85728e-06
3.66633e-07
1.86718e-06
5.22041e-07
1.87508e-06
2.76925e-07
1.88052e-06
2.76739e-07
1.87302e-06
-2.74598e-07
1.86701e-06
-1.65073e-07
1.86288e-06
-2.31198e-07
1.86049e-06
-2.10504e-07
1.85358e-06
-1.92963e-07
1.85199e-06
-1.39713e-07
1.8432e-06
-5.15564e-08
1.84148e-06
3.7091e-08
1.40765e-07
1.83512e-06
1.94661e-06
-2.55974e-07
1.94472e-06
-7.23446e-08
1.95957e-06
5.75929e-07
1.97236e-06
3.70215e-07
1.95558e-06
-5.16875e-07
1.94332e-06
-6.47516e-07
1.9354e-06
-2.91347e-07
1.94479e-06
3.5724e-07
1.95598e-06
5.10853e-07
1.9649e-06
2.68008e-07
1.9709e-06
2.70738e-07
1.96288e-06
-2.66576e-07
1.95762e-06
-1.59811e-07
1.95175e-06
-2.25337e-07
1.94957e-06
-2.08323e-07
1.94074e-06
-1.84133e-07
1.93897e-06
-1.37945e-07
1.92987e-06
-4.24479e-08
1.92745e-06
3.95067e-08
1.44758e-07
1.92346e-06
2.04021e-06
-2.49998e-07
2.03828e-06
-7.04085e-08
2.05246e-06
5.61745e-07
2.0659e-06
3.56781e-07
2.04951e-06
-5.00495e-07
2.03611e-06
-6.34115e-07
2.02717e-06
-2.82398e-07
2.03723e-06
3.47179e-07
2.04926e-06
4.98821e-07
2.05868e-06
2.58581e-07
2.06519e-06
2.64233e-07
2.05653e-06
-2.57916e-07
2.05213e-06
-1.55416e-07
2.04471e-06
-2.17911e-07
2.04294e-06
-2.06553e-07
2.03264e-06
-1.73836e-07
2.03047e-06
-1.35772e-07
2.02158e-06
-3.35593e-08
2.01803e-06
4.30604e-08
1.46377e-07
2.01641e-06
2.13811e-06
-2.44106e-07
2.13635e-06
-6.86481e-08
2.15006e-06
5.48032e-07
2.16379e-06
3.43054e-07
2.14751e-06
-4.84217e-07
2.13352e-06
-6.20129e-07
2.12405e-06
-2.72928e-07
2.13457e-06
3.36659e-07
2.14723e-06
4.8616e-07
2.15681e-06
2.49001e-07
2.16381e-06
2.57236e-07
2.15439e-06
-2.48491e-07
2.15088e-06
-1.51913e-07
2.14202e-06
-2.09051e-07
2.14071e-06
-2.0524e-07
2.12947e-06
-1.62591e-07
2.1266e-06
-1.32903e-07
2.11849e-06
-2.54468e-08
2.11361e-06
4.79315e-08
1.45935e-07
2.11406e-06
2.24056e-06
-2.38181e-07
2.23904e-06
-6.71252e-08
2.25253e-06
5.34538e-07
2.26641e-06
3.29181e-07
2.24999e-06
-4.67802e-07
2.23565e-06
-6.05782e-07
2.226e-06
-2.63285e-07
2.23685e-06
3.25815e-07
2.25008e-06
4.72925e-07
2.25958e-06
2.39508e-07
2.26709e-06
2.49723e-07
2.2568e-06
-2.38204e-07
2.25417e-06
-1.49278e-07
2.24402e-06
-1.98903e-07
2.24305e-06
-2.04266e-07
2.23139e-06
-1.50936e-07
2.22747e-06
-1.28988e-07
2.22062e-06
-1.85908e-08
2.21455e-06
5.39983e-08
1.44016e-07
2.21647e-06
2.34785e-06
-2.32151e-07
2.34655e-06
-6.5834e-08
2.36003e-06
5.21059e-07
2.374e-06
3.15212e-07
2.35733e-06
-4.51129e-07
2.34266e-06
-5.91116e-07
2.33307e-06
-2.53695e-07
2.34412e-06
3.14766e-07
2.35795e-06
4.59095e-07
2.3672e-06
2.30265e-07
2.37527e-06
2.41648e-07
2.36408e-06
-2.27013e-07
2.36225e-06
-1.47446e-07
2.35101e-06
-1.87671e-07
2.35012e-06
-2.03373e-07
2.33857e-06
-1.39386e-07
2.33326e-06
-1.23678e-07
2.32798e-06
-1.33051e-08
2.32105e-06
6.09273e-08
1.41319e-07
2.32374e-06
2.46023e-06
-2.2599e-07
2.45914e-06
-6.47358e-08
2.47273e-06
5.07466e-07
2.48677e-06
3.01166e-07
2.46984e-06
-4.34195e-07
2.45481e-06
-5.76085e-07
2.44542e-06
-2.443e-07
2.45654e-06
3.03647e-07
2.471e-06
4.44626e-07
2.47988e-06
2.21391e-07
2.48856e-06
2.32971e-07
2.47649e-06
-2.14952e-07
2.47535e-06
-1.46306e-07
2.46331e-06
-1.75624e-07
2.46216e-06
-2.02228e-07
2.45117e-06
-1.28398e-07
2.44423e-06
-1.16736e-07
2.44056e-06
-9.63039e-09
2.43323e-06
6.82503e-08
1.38518e-07
2.43604e-06
2.57801e-06
-2.19701e-07
2.57705e-06
-6.37756e-08
2.59083e-06
4.93685e-07
2.60491e-06
2.87079e-07
2.58781e-06
-4.17091e-07
2.57234e-06
-5.60613e-07
2.56324e-06
-2.35207e-07
2.57428e-06
2.9261e-07
2.58943e-06
4.29481e-07
2.59785e-06
2.12966e-07
2.60714e-06
2.23684e-07
2.59433e-06
-2.0214e-07
2.5937e-06
-1.45684e-07
2.58118e-06
-1.63102e-07
2.5794e-06
-2.00447e-07
2.56936e-06
-1.18354e-07
2.56073e-06
-1.08112e-07
2.5584e-06
-7.29926e-09
2.55127e-06
7.53867e-08
1.36189e-07
2.5536e-06
2.70143e-06
-2.13305e-07
2.70055e-06
-6.28907e-08
2.71457e-06
4.79657e-07
2.72863e-06
2.7302e-07
2.7115e-06
-3.99956e-07
2.6955e-06
-5.44619e-07
2.68681e-06
-2.26511e-07
2.69761e-06
2.81812e-07
2.71344e-06
4.13647e-07
2.72138e-06
2.05024e-07
2.73123e-06
2.13838e-07
2.71786e-06
-1.88767e-07
2.71752e-06
-1.4535e-07
2.7049e-06
-1.50478e-07
2.70211e-06
-1.97658e-07
2.69327e-06
-1.09516e-07
2.68313e-06
-9.79736e-08
2.68164e-06
-5.80715e-09
2.6753e-06
8.17301e-08
1.34727e-07
2.67676e-06
2.83079e-06
-2.06829e-07
2.82992e-06
-6.20145e-08
2.84425e-06
4.65321e-07
2.85818e-06
2.59093e-07
2.84118e-06
-3.82954e-07
2.82457e-06
-5.28014e-07
2.81637e-06
-2.18305e-07
2.82679e-06
2.71386e-07
2.8433e-06
3.97143e-07
2.85078e-06
1.97541e-07
2.86106e-06
2.03561e-07
2.84738e-06
-1.75088e-07
2.84707e-06
-1.45039e-07
2.83468e-06
-1.38094e-07
2.83059e-06
-1.93568e-07
2.82306e-06
-1.01982e-07
2.81174e-06
-8.66575e-08
2.81053e-06
-4.59007e-09
2.80547e-06
8.6786e-08
1.34284e-07
2.80591e-06
2.96637e-06
-2.00306e-07
2.96543e-06
-6.10753e-08
2.98016e-06
4.50598e-07
2.99383e-06
2.45425e-07
2.97712e-06
-3.66252e-07
2.95982e-06
-5.10713e-07
2.9522e-06
-2.10677e-07
2.96217e-06
2.61416e-07
2.97927e-06
3.80036e-07
2.98638e-06
1.90429e-07
2.99689e-06
1.93054e-07
2.98319e-06
-1.61383e-07
2.98263e-06
-1.44483e-07
2.97077e-06
-1.26232e-07
2.96521e-06
-1.88015e-07
2.95889e-06
-9.56625e-08
2.94684e-06
-7.45994e-08
2.94543e-06
-3.18439e-09
2.94194e-06
9.02768e-08
1.3477e-07
2.94145e-06
3.10847e-06
-1.9377e-07
3.10739e-06
-5.99941e-08
3.1226e-06
4.35388e-07
3.13587e-06
2.32159e-07
3.11962e-06
-3.50012e-07
3.10155e-06
-4.9264e-07
3.09457e-06
-2.03693e-07
3.10406e-06
2.51925e-07
3.12165e-06
3.6245e-07
3.12854e-06
1.83538e-07
3.13902e-06
1.82567e-07
3.12556e-06
-1.47922e-07
3.12454e-06
-1.43456e-07
3.11338e-06
-1.15072e-07
3.10632e-06
-1.80957e-07
3.101e-06
-9.03456e-08
3.08864e-06
-6.22424e-08
3.08673e-06
-1.27351e-09
3.08488e-06
9.21348e-08
1.35904e-07
3.08374e-06
3.25739e-06
-1.87254e-07
3.25608e-06
-5.86834e-08
3.27189e-06
4.19582e-07
3.28461e-06
2.19434e-07
3.26898e-06
-3.34379e-07
3.25009e-06
-4.73747e-07
3.24377e-06
-1.97374e-07
3.25283e-06
2.42864e-07
3.27071e-06
3.44566e-07
3.27758e-06
1.76666e-07
3.28778e-06
1.72369e-07
3.27479e-06
-1.34928e-07
3.27314e-06
-1.41813e-07
3.26274e-06
-1.04672e-07
3.25425e-06
-1.7246e-07
3.24969e-06
-8.57857e-08
3.23739e-06
-4.99489e-08
3.2348e-06
1.3218e-09
3.2345e-06
9.24374e-08
1.37303e-07
3.2331e-06
3.41347e-06
-1.80791e-07
3.41183e-06
-5.70483e-08
3.42834e-06
4.03071e-07
3.4404e-06
2.07375e-07
3.4255e-06
-3.19472e-07
3.40578e-06
-4.5403e-07
3.40008e-06
-1.91679e-07
3.40884e-06
2.34114e-07
3.42678e-06
3.26616e-07
3.43385e-06
1.69603e-07
3.44353e-06
1.62684e-07
3.43113e-06
-1.22527e-07
3.42883e-06
-1.39508e-07
3.41914e-06
-9.49851e-08
3.40935e-06
-1.62669e-07
3.40531e-06
-8.17471e-08
3.39336e-06
-3.80025e-08
3.38998e-06
4.71073e-09
3.39107e-06
9.13427e-08
1.38546e-07
3.38983e-06
3.57703e-06
-1.74414e-07
3.57498e-06
-5.49916e-08
3.59229e-06
3.85757e-07
3.60359e-06
1.96077e-07
3.58949e-06
-3.05367e-07
3.56901e-06
-4.33552e-07
3.56382e-06
-1.86496e-07
3.57245e-06
2.25484e-07
3.59019e-06
3.08876e-07
3.59766e-06
1.62141e-07
3.60667e-06
1.53665e-07
3.59489e-06
-1.10738e-07
3.59197e-06
-1.36594e-07
3.58288e-06
-8.58954e-08
3.57195e-06
-1.51736e-07
3.56825e-06
-7.80507e-08
3.5569e-06
-2.66513e-08
3.55262e-06
8.99127e-09
3.55489e-06
8.90749e-08
1.392e-07
3.55423e-06
3.74845e-06
-1.68156e-07
3.74588e-06
-5.24235e-08
3.76407e-06
3.6757e-07
3.77455e-06
1.85595e-07
3.76126e-06
-2.92081e-07
3.74017e-06
-4.12455e-07
3.73531e-06
-1.81643e-07
3.74405e-06
2.1675e-07
3.76132e-06
2.91606e-07
3.76933e-06
1.54129e-07
3.77763e-06
1.45368e-07
3.76635e-06
-9.94679e-08
3.76294e-06
-1.33183e-07
3.75433e-06
-7.72807e-08
3.7424e-06
-1.39803e-07
3.73886e-06
-7.4511e-08
3.72838e-06
-1.61769e-08
3.72314e-06
1.42358e-08
3.72624e-06
8.59772e-08
1.38825e-07
3.72661e-06
3.92808e-06
-1.62047e-07
3.92493e-06
-4.92711e-08
3.94402e-06
3.48481e-07
3.95368e-06
1.75929e-07
3.94116e-06
-2.79557e-07
3.91967e-06
-3.90968e-07
3.91491e-06
-1.7688e-07
3.92399e-06
2.07665e-07
3.94056e-06
2.75044e-07
3.94918e-06
1.45508e-07
3.95682e-06
1.37724e-07
3.94589e-06
-8.854e-08
3.9421e-06
-1.29386e-07
3.9339e-06
-6.90822e-08
3.92105e-06
-1.26958e-07
3.91749e-06
-7.0945e-08
3.90818e-06
-6.86601e-09
3.902e-06
2.04115e-08
3.90542e-06
8.25572e-08
1.3703e-07
3.90722e-06
4.11632e-06
-1.56115e-07
4.11254e-06
-4.54929e-08
4.1325e-06
3.2852e-07
4.14141e-06
1.67022e-07
4.12951e-06
-2.67661e-07
4.10795e-06
-3.69404e-07
4.10298e-06
-1.71917e-07
4.11267e-06
1.97979e-07
4.12835e-06
2.59362e-07
4.13752e-06
1.36339e-07
4.14468e-06
1.30564e-07
4.1339e-06
-7.77611e-08
4.12977e-06
-1.25254e-07
4.12203e-06
-6.13445e-08
4.10833e-06
-1.13252e-07
4.10454e-06
-6.71623e-08
4.09661e-06
1.06705e-09
4.08973e-06
2.72934e-08
4.09284e-06
7.94417e-08
1.33602e-07
4.09627e-06
4.31357e-06
-1.5038e-07
4.30917e-06
-4.10912e-08
4.3299e-06
3.07788e-07
4.33818e-06
1.58743e-07
4.32669e-06
-2.56178e-07
4.30543e-06
-3.48144e-07
4.29997e-06
-1.66449e-07
4.31045e-06
1.87495e-07
4.3252e-06
2.44617e-07
4.33472e-06
1.26817e-07
4.3416e-06
1.23678e-07
4.33083e-06
-6.69834e-08
4.32631e-06
-1.20743e-07
4.31915e-06
-5.41768e-08
4.30468e-06
-9.87883e-08
4.30046e-06
-6.29345e-08
4.294e-06
7.52802e-09
4.28681e-06
3.44791e-08
4.28906e-06
7.71932e-08
1.28675e-07
4.29398e-06
4.52025e-06
-1.44854e-07
4.51526e-06
-3.61065e-08
4.5366e-06
2.86447e-07
4.54446e-06
1.50891e-07
4.5331e-06
-2.44822e-07
4.51257e-06
-3.2761e-07
4.50633e-06
-1.60209e-07
4.51771e-06
1.76112e-07
4.53159e-06
2.3074e-07
4.54119e-06
1.17217e-07
4.54796e-06
1.16904e-07
4.53712e-06
-5.61464e-08
4.53213e-06
-1.15753e-07
4.5256e-06
-4.7648e-08
4.51059e-06
-8.37757e-08
4.50571e-06
-5.80561e-08
4.50068e-06
1.25573e-08
4.49366e-06
4.14996e-08
4.49475e-06
7.61033e-08
1.22779e-07
4.50065e-06
4.7368e-06
-1.39537e-07
4.73132e-06
-3.06263e-08
4.75303e-06
2.64734e-07
4.76074e-06
1.43182e-07
4.74916e-06
-2.33248e-07
4.72978e-06
-3.08227e-07
4.72257e-06
-1.52999e-07
4.73477e-06
1.63913e-07
4.74804e-06
2.17474e-07
4.75739e-06
1.07862e-07
4.76414e-06
1.10159e-07
4.75327e-06
-4.52783e-08
4.74765e-06
-1.10131e-07
4.74177e-06
-4.1768e-08
4.7265e-06
-6.85122e-08
4.72084e-06
-5.23907e-08
4.71709e-06
1.63044e-08
4.71064e-06
4.79489e-08
4.71063e-06
7.61206e-08
1.16675e-07
4.71673e-06
4.96368e-06
-1.34415e-07
4.95784e-06
-2.47873e-08
4.97961e-06
2.42964e-07
4.98754e-06
1.35244e-07
4.97537e-06
-2.21078e-07
4.95751e-06
-2.90359e-07
4.94927e-06
-1.44761e-07
4.96197e-06
1.51215e-07
4.97501e-06
2.04429e-07
4.98387e-06
9.90045e-08
4.99055e-06
1.03479e-07
4.97969e-06
-3.44237e-08
4.97332e-06
-1.0376e-07
4.96805e-06
-3.64909e-08
4.95286e-06
-5.33317e-08
4.94636e-06
-4.58872e-08
4.94373e-06
1.8939e-08
4.9381e-06
5.35778e-08
4.93724e-06
7.69817e-08
1.11016e-07
4.9429e-06
5.20136e-06
-1.29458e-07
5.19535e-06
-1.87754e-08
5.21678e-06
2.21529e-07
5.22539e-06
1.26634e-07
5.21229e-06
-2.07975e-07
5.1961e-06
-2.74172e-07
5.18705e-06
-1.35711e-07
5.1997e-06
1.38566e-07
5.21289e-06
1.9124e-07
5.22116e-06
9.07336e-08
5.22762e-06
9.70204e-08
5.21683e-06
-2.36344e-08
5.20961e-06
-9.65328e-08
5.2049e-06
-3.17857e-08
5.19016e-06
-3.8588e-08
5.18282e-06
-3.85546e-08
5.18111e-06
2.0652e-08
5.17645e-06
5.82431e-08
5.17503e-06
7.83935e-08
1.06146e-07
5.1799e-06
5.45036e-06
-1.24625e-07
5.4444e-06
-1.28227e-08
5.46505e-06
2.00881e-07
5.47483e-06
1.16853e-07
5.46057e-06
-1.93708e-07
5.4459e-06
-2.59504e-07
5.43659e-06
-1.26399e-07
5.44859e-06
1.26565e-07
5.46203e-06
1.77794e-07
5.46981e-06
8.2953e-08
5.4758e-06
9.10303e-08
5.46509e-06
-1.29192e-08
5.45695e-06
-8.83955e-08
5.45289e-06
-2.77265e-08
5.43893e-06
-2.4626e-08
5.43077e-06
-3.04002e-08
5.42977e-06
2.16557e-08
5.42619e-06
6.18283e-08
5.42443e-06
8.0152e-08
1.02123e-07
5.42845e-06
5.71119e-06
-1.19858e-07
5.70557e-06
-7.19967e-09
5.72494e-06
1.81511e-07
5.73636e-06
1.05428e-07
5.72093e-06
-1.7828e-07
5.70732e-06
-2.45886e-07
5.69841e-06
-1.17493e-07
5.70928e-06
1.15697e-07
5.72278e-06
1.64295e-07
5.73021e-06
7.55161e-08
5.7355e-06
8.57474e-08
5.72487e-06
-2.29316e-09
5.71592e-06
-7.94412e-08
5.71261e-06
-2.4422e-08
5.69977e-06
-1.17818e-08
5.6908e-06
-2.14338e-08
5.69021e-06
2.22433e-08
5.68785e-06
6.41881e-08
5.68591e-06
8.21013e-08
9.89124e-08
5.68912e-06
5.98443e-06
-1.15094e-07
5.97943e-06
-2.20498e-09
5.99706e-06
1.63881e-07
6.01039e-06
9.21054e-08
5.99416e-06
-1.62053e-07
5.98088e-06
-2.32603e-07
5.97291e-06
-1.09528e-07
5.98239e-06
1.06215e-07
5.99541e-06
1.51279e-07
6.00251e-06
6.84122e-08
6.00703e-06
8.1229e-08
5.9967e-06
8.03492e-09
5.98719e-06
-6.99271e-08
5.98468e-06
-2.1908e-08
5.97325e-06
-3.60094e-10
5.96354e-06
-1.17195e-08
5.96298e-06
2.28073e-08
5.96197e-06
6.51963e-08
5.96005e-06
8.4022e-08
9.65048e-08
5.96245e-06
6.27066e-06
-1.10264e-07
6.26658e-06
1.86929e-09
6.28217e-06
1.48291e-07
6.29717e-06
7.71066e-08
6.28095e-06
-1.45831e-07
6.26726e-06
-2.1891e-07
6.26046e-06
-1.02729e-07
6.26845e-06
9.82259e-08
6.28021e-06
1.39515e-07
6.28677e-06
6.18586e-08
6.29095e-06
7.70467e-08
6.28136e-06
1.7618e-08
6.27149e-06
-6.0053e-08
6.26965e-06
-2.00694e-08
6.25992e-06
9.37355e-09
6.24966e-06
-1.46051e-09
6.24867e-06
2.37924e-08
6.24901e-06
6.48621e-08
6.24744e-06
8.5586e-08
9.48794e-08
6.24907e-06
6.57051e-06
-1.05303e-07
6.56762e-06
4.76008e-09
6.58103e-06
1.34883e-07
6.59714e-06
6.09905e-08
6.58189e-06
-1.30579e-07
6.56731e-06
-2.04329e-07
6.56147e-06
-9.68916e-08
6.56805e-06
9.16471e-08
6.57807e-06
1.29495e-07
6.58412e-06
5.5815e-08
6.5885e-06
7.26622e-08
6.57977e-06
2.63512e-08
6.56956e-06
-4.98462e-08
6.56817e-06
-1.86793e-08
6.56024e-06
1.72989e-08
6.54981e-06
8.96995e-09
6.54803e-06
2.5572e-08
6.54948e-06
6.3413e-08
6.54865e-06
8.64196e-08
9.39069e-08
6.54962e-06
6.88464e-06
-1.00154e-07
6.88315e-06
6.25613e-09
6.89439e-06
1.23635e-07
6.91091e-06
4.44722e-08
6.89752e-06
-1.17187e-07
6.88192e-06
-1.88729e-07
6.87665e-06
-9.16218e-08
6.88225e-06
8.60441e-08
6.89038e-06
1.21367e-07
6.89583e-06
5.03673e-08
6.90061e-06
6.78791e-08
6.89275e-06
3.42102e-08
6.88214e-06
-3.92301e-08
6.88083e-06
-1.73736e-08
6.8748e-06
2.33317e-08
6.86463e-06
1.91441e-08
6.86185e-06
2.83508e-08
6.86399e-06
6.12717e-08
6.86419e-06
8.62191e-08
9.33228e-08
6.86477e-06
7.21375e-06
-9.47708e-08
7.21379e-06
6.22128e-09
7.22301e-06
1.14408e-07
7.23924e-06
2.82499e-08
7.22832e-06
-1.06268e-07
7.21186e-06
-1.72275e-07
7.20686e-06
-8.66172e-08
7.21203e-06
8.08768e-08
7.21815e-06
1.15241e-07
7.22253e-06
4.59914e-08
7.22776e-06
6.26437e-08
7.22102e-06
4.0951e-08
7.20998e-06
-2.81935e-08
7.20838e-06
-1.57734e-08
7.20418e-06
2.75385e-08
7.1947e-06
2.86211e-08
7.19091e-06
3.21377e-08
7.19324e-06
5.8949e-08
7.1946e-06
8.48569e-08
9.27814e-08
7.19514e-06
7.55858e-06
-8.91278e-08
7.56014e-06
4.66376e-09
7.56767e-06
1.06875e-07
7.58288e-06
1.30379e-08
7.57465e-06
-9.80329e-08
7.5579e-06
-1.55522e-07
7.55299e-06
-8.17091e-08
7.55799e-06
7.58786e-08
7.56213e-06
1.11101e-07
7.56498e-06
4.31399e-08
7.57053e-06
5.70879e-08
7.56517e-06
4.6319e-08
7.5539e-06
-1.6924e-08
7.5516e-06
-1.34788e-08
7.54903e-06
3.01068e-08
7.54065e-06
3.7001e-08
7.53603e-06
3.67646e-08
7.53805e-06
5.69216e-08
7.54049e-06
8.24201e-08
9.19322e-08
7.54134e-06
7.91991e-06
-8.32264e-08
7.92285e-06
1.72573e-09
7.92918e-06
1.00547e-07
7.94266e-06
-4.4746e-10
7.9372e-06
-9.25748e-08
7.9206e-06
-1.38923e-07
7.91587e-06
-7.69721e-08
7.92075e-06
7.09933e-08
7.9229e-06
1.08958e-07
7.924e-06
4.20402e-08
7.92965e-06
5.14345e-08
7.92584e-06
5.01275e-08
7.9146e-06
-5.68893e-09
7.91137e-06
-1.02481e-08
7.91011e-06
3.13752e-08
7.90315e-06
4.39572e-08
7.89795e-06
4.19602e-08
7.89934e-06
5.55393e-08
7.90257e-06
7.91856e-08
9.04823e-08
7.90402e-06
8.29855e-06
-7.70929e-08
8.30263e-06
-2.35664e-09
8.30821e-06
9.49686e-08
8.31936e-06
-1.15953e-08
8.31658e-06
-8.9802e-08
8.30057e-06
-1.22904e-07
8.29582e-06
-7.22233e-08
8.30039e-06
6.64245e-08
8.30104e-06
1.08305e-07
8.30055e-06
4.25262e-08
8.30596e-06
4.6028e-08
8.30369e-06
5.23975e-08
8.29287e-06
5.13173e-09
8.2886e-06
-5.98009e-09
8.28819e-06
3.17842e-08
8.28286e-06
4.92857e-08
8.27747e-06
4.73524e-08
8.278e-06
5.50113e-08
8.28164e-06
7.5541e-08
8.82582e-08
8.28387e-06
8.69534e-06
-7.07702e-08
8.70036e-06
-7.37429e-09
8.70538e-06
8.99406e-08
8.71379e-06
-2.00009e-08
8.71291e-06
-8.89184e-08
8.69819e-06
-1.0819e-07
8.69219e-06
-6.62157e-08
8.69609e-06
6.2523e-08
8.69724e-06
1.07151e-07
8.6957e-06
4.40704e-08
8.70038e-06
4.13432e-08
8.69943e-06
5.3345e-08
8.68944e-06
1.51268e-08
8.68421e-06
-7.4604e-10
8.68417e-06
3.18228e-08
8.68051e-06
5.29408e-08
8.67535e-06
5.25103e-08
8.67497e-06
5.53913e-08
8.67861e-06
7.19036e-08
8.52436e-08
8.68163e-06
9.11118e-06
-6.43318e-08
9.11688e-06
-1.30759e-08
9.12158e-06
8.52407e-08
9.1267e-06
-2.51215e-08
9.12504e-06
-8.72588e-08
9.10972e-06
-9.28665e-08
9.10093e-06
-5.74225e-08
9.10859e-06
5.48543e-08
9.11243e-06
1.03314e-07
9.11039e-06
4.61143e-08
9.11386e-06
3.78751e-08
9.11393e-06
5.32676e-08
9.10506e-06
2.39953e-08
9.09908e-06
5.2339e-09
9.099e-06
3.19041e-08
9.09688e-06
5.50641e-08
9.09237e-06
5.70178e-08
9.0912e-06
5.65649e-08
9.09445e-06
6.8652e-08
8.15731e-08
9.09812e-06
9.54702e-06
-5.78942e-08
9.55293e-06
-1.89814e-08
9.55787e-06
8.02959e-08
9.55907e-06
-2.63221e-08
9.55587e-06
-8.40547e-08
9.54171e-06
-7.87046e-08
9.53276e-06
-4.84764e-08
9.54142e-06
4.61907e-08
9.54745e-06
9.72855e-08
9.54529e-06
4.82794e-08
9.54736e-06
3.57998e-08
9.54821e-06
5.24254e-08
9.54056e-06
3.16447e-08
9.53415e-06
1.16447e-08
9.53375e-06
3.23037e-08
9.53287e-06
5.5941e-08
9.52932e-06
6.05701e-08
9.52763e-06
5.82518e-08
9.53021e-06
6.6074e-08
7.7519e-08
9.53426e-06
1.00038e-05
-5.15816e-08
1.00095e-05
-2.46388e-08
1.0015e-05
7.47385e-08
1.00132e-05
-2.44918e-08
1.00099e-05
-8.07161e-08
9.9983e-06
-6.71362e-08
9.98869e-06
-3.88686e-08
9.99582e-06
3.90598e-08
1.0003e-05
9.01077e-08
1.00011e-05
5.01462e-08
1.0002e-05
3.4974e-08
1.00032e-05
5.11568e-08
9.99685e-06
3.80275e-08
9.99032e-06
1.81751e-08
9.98946e-06
3.3163e-08
9.98948e-06
5.59157e-08
9.98701e-06
6.30387e-08
9.98519e-06
6.00792e-08
9.98697e-06
6.42868e-08
7.34459e-08
9.99105e-06
1.04826e-05
-4.55188e-08
1.04876e-05
-2.96819e-08
1.0494e-05
6.83349e-08
1.04903e-05
-2.07582e-08
1.04863e-05
-7.6727e-08
1.04772e-05
-5.80515e-08
1.04676e-05
-2.92206e-08
1.04726e-05
3.40486e-08
1.04801e-05
8.2597e-08
1.04788e-05
5.14158e-08
1.04787e-05
3.51179e-08
1.04801e-05
4.97813e-08
1.04749e-05
4.31507e-08
1.04685e-05
2.4579e-08
1.04672e-05
3.45151e-08
1.04678e-05
5.53061e-08
1.04664e-05
6.44323e-08
1.04647e-05
6.17192e-08
1.04658e-05
6.31877e-08
6.97129e-08
1.04696e-05
1.09843e-05
-3.98367e-08
1.09884e-05
-3.37495e-08
1.09959e-05
6.08622e-08
1.09909e-05
-1.57558e-08
1.09858e-05
-7.1614e-08
1.09788e-05
-5.11324e-08
1.09699e-05
-2.02388e-08
1.09728e-05
3.11414e-08
1.09798e-05
7.5519e-08
1.09793e-05
5.1963e-08
1.09785e-05
3.58743e-08
1.09798e-05
4.85363e-08
1.09759e-05
4.7085e-08
1.09698e-05
3.06387e-08
1.0968e-05
3.63261e-08
1.09689e-05
5.43944e-08
1.09685e-05
6.48429e-08
1.09672e-05
6.29665e-08
1.09679e-05
6.25406e-08
6.65543e-08
1.0971e-05
1.15102e-05
-3.46492e-08
1.1513e-05
-3.65977e-08
1.15214e-05
5.24684e-08
1.15159e-05
-1.01997e-08
1.15094e-05
-6.51035e-08
1.1504e-05
-4.58179e-08
1.14963e-05
-1.25055e-08
1.14975e-05
2.9995e-08
1.15036e-05
6.93913e-08
1.15036e-05
5.19031e-08
1.15025e-05
3.69696e-08
1.15036e-05
4.74691e-08
1.15007e-05
4.99868e-08
1.14952e-05
3.6162e-08
1.1493e-05
3.8519e-08
1.1494e-05
5.3421e-08
1.14944e-05
6.4409e-08
1.14937e-05
6.36917e-08
1.14941e-05
6.21095e-08
6.40058e-08
1.14967e-05
1.20612e-05
-3.00415e-08
1.20626e-05
-3.79966e-08
1.20717e-05
4.34287e-08
1.20663e-05
-4.80534e-09
1.20582e-05
-5.70699e-08
1.20538e-05
-4.14214e-08
1.20478e-05
-6.45296e-09
1.20478e-05
3.00116e-08
1.20526e-05
6.45079e-08
1.2053e-05
5.1558e-08
1.20518e-05
3.8176e-08
1.20527e-05
4.65806e-08
1.20507e-05
5.19914e-08
1.20458e-05
4.10036e-08
1.20434e-05
4.09805e-08
1.20442e-05
5.25696e-08
1.20453e-05
6.33305e-08
1.20452e-05
6.38154e-08
1.20456e-05
6.16941e-08
6.19639e-08
1.20476e-05
1.26386e-05
-2.60537e-08
1.26384e-05
-3.78031e-08
1.26476e-05
3.42444e-08
1.2643e-05
-1.77869e-10
1.26337e-05
-4.77653e-08
1.26295e-05
-3.72565e-08
1.26253e-05
-2.21522e-09
1.26248e-05
3.04846e-08
1.26283e-05
6.09462e-08
1.26286e-05
5.12849e-08
1.26274e-05
3.93843e-08
1.26281e-05
4.58477e-08
1.26269e-05
5.31938e-08
1.26229e-05
4.50821e-08
1.26203e-05
4.35272e-08
1.26209e-05
5.19748e-08
1.26224e-05
6.18445e-08
1.26229e-05
6.33375e-08
1.26234e-05
6.11321e-08
6.02653e-08
1.26251e-05
1.32436e-05
-2.26715e-08
1.32418e-05
-3.60472e-08
1.32504e-05
2.56032e-08
1.32471e-05
3.15846e-09
1.32371e-05
-3.77615e-08
1.32325e-05
-3.26865e-08
1.32299e-05
4.38606e-10
1.32296e-05
3.07745e-08
1.3232e-05
5.8514e-08
1.3232e-05
5.13212e-08
1.32307e-05
4.06806e-08
1.32313e-05
4.52317e-08
1.32308e-05
5.37161e-08
1.32275e-05
4.83372e-08
1.32251e-05
4.59785e-08
1.32254e-05
5.16708e-08
1.32271e-05
6.0166e-08
1.3228e-05
6.23443e-08
1.32289e-05
6.03128e-08
5.8728e-08
1.32304e-05
1.38773e-05
-1.98309e-08
1.38743e-05
-3.30397e-08
1.38817e-05
1.81868e-08
1.388e-05
4.93103e-09
1.387e-05
-2.77626e-08
1.38646e-05
-2.72825e-08
1.38629e-05
2.11641e-09
1.38632e-05
3.0455e-08
1.38649e-05
5.67916e-08
1.38645e-05
5.17496e-08
1.3863e-05
4.22095e-08
1.38634e-05
4.47684e-08
1.38635e-05
5.36464e-08
1.38611e-05
5.07644e-08
1.38589e-05
4.81682e-08
1.38589e-05
5.16072e-08
1.38606e-05
5.84732e-08
1.3862e-05
6.09571e-08
1.38631e-05
5.92213e-08
5.71829e-08
1.38647e-05
1.45413e-05
-1.74288e-08
1.45373e-05
-2.90918e-08
1.45431e-05
1.23558e-08
1.45429e-05
5.16474e-09
1.45336e-05
-1.84339e-08
1.45273e-05
-2.09606e-08
1.45258e-05
3.61767e-09
1.45268e-05
2.94121e-08
1.45283e-05
5.52496e-08
1.45276e-05
5.25163e-08
1.45257e-05
4.4061e-08
1.45259e-05
4.45751e-08
1.45264e-05
5.31201e-08
1.45249e-05
5.23317e-08
1.45231e-05
4.99921e-08
1.4523e-05
5.16763e-08
1.45246e-05
5.68774e-08
1.45263e-05
5.92871e-08
1.45276e-05
5.79141e-08
5.55263e-08
1.45292e-05
1.52368e-05
-1.53419e-08
1.52325e-05
-2.48182e-08
1.52365e-05
8.35597e-09
1.52373e-05
4.36896e-09
1.52292e-05
-1.03655e-08
1.52222e-05
-1.39113e-08
1.52202e-05
5.62135e-09
1.52217e-05
2.78835e-08
1.52235e-05
5.34444e-08
1.52227e-05
5.33925e-08
1.52205e-05
4.61872e-08
1.52203e-05
4.48067e-08
1.52211e-05
5.23455e-08
1.52204e-05
5.30479e-08
1.5219e-05
5.13691e-08
1.52189e-05
5.17708e-08
1.52203e-05
5.54222e-08
1.52222e-05
5.74378e-08
1.52237e-05
5.64331e-08
5.37656e-08
1.52254e-05
1.59654e-05
-1.34427e-08
1.59614e-05
-2.07495e-08
1.59635e-05
6.21771e-09
1.59647e-05
3.18894e-09
1.59582e-05
-3.88494e-09
1.59509e-05
-6.61357e-09
1.5948e-05
8.50621e-09
1.59495e-05
2.63883e-08
1.59517e-05
5.12142e-08
1.59511e-05
5.40017e-08
1.59489e-05
4.84655e-08
1.59481e-05
4.55365e-08
1.59489e-05
5.15255e-08
1.59489e-05
5.3073e-08
1.59481e-05
5.21615e-08
1.59481e-05
5.17985e-08
1.59494e-05
5.409e-08
1.59514e-05
5.55076e-08
1.5953e-05
5.47868e-08
5.19733e-08
1.59548e-05
1.67288e-05
-1.16275e-08
1.67252e-05
-1.71135e-08
1.67257e-05
5.61946e-09
1.67267e-05
2.24173e-09
1.67218e-05
1.01683e-09
1.67148e-05
3.61031e-10
1.6711e-05
1.22934e-08
1.67119e-05
2.55077e-08
1.67145e-05
4.86611e-08
1.67145e-05
5.39966e-08
1.67122e-05
5.07138e-08
1.67111e-05
4.66753e-08
1.67117e-05
5.08739e-08
1.67122e-05
5.26547e-08
1.6712e-05
5.23112e-08
1.67122e-05
5.16388e-08
1.67134e-05
5.28439e-08
1.67154e-05
5.35477e-08
1.67172e-05
5.29852e-08
5.01857e-08
1.6719e-05
1.75286e-05
-9.83471e-09
1.75256e-05
-1.41191e-08
1.7525e-05
6.20846e-09
1.75252e-05
2.04052e-09
1.75216e-05
4.63495e-09
1.75154e-05
6.4998e-09
1.7511e-05
1.67548e-08
1.75108e-05
2.56534e-08
1.75134e-05
4.61012e-08
1.75141e-05
5.32863e-08
1.75122e-05
5.25945e-08
1.75108e-05
4.80903e-08
1.75112e-05
5.0517e-08
1.75118e-05
5.19713e-08
1.75122e-05
5.19757e-08
1.75127e-05
5.11252e-08
1.75139e-05
5.16444e-08
1.75158e-05
5.15839e-08
1.75178e-05
5.10351e-08
4.83911e-08
1.75196e-05
1.83666e-05
-8.03924e-09
1.83641e-05
-1.16958e-08
1.83628e-05
7.52368e-09
1.8362e-05
2.82818e-09
1.83593e-05
7.39179e-09
1.83542e-05
1.15663e-08
1.83495e-05
2.14604e-08
1.83482e-05
2.69096e-08
1.83503e-05
4.39929e-08
1.83516e-05
5.20318e-08
1.83504e-05
5.37661e-08
1.83489e-05
4.9627e-08
1.8349e-05
5.04437e-08
1.83498e-05
5.11642e-08
1.83504e-05
5.13586e-08
1.83513e-05
5.02234e-08
1.83526e-05
5.03656e-08
1.83545e-05
4.96805e-08
1.83566e-05
4.89238e-08
4.6551e-08
1.83584e-05
1.92446e-05
-6.26528e-09
1.92426e-05
-9.65181e-09
1.9241e-05