/*--------------------------------*- C++ -*----------------------------------*\
| =========                 |                                                 |
| \\      /  F ield         | OpenFOAM: The Open Source CFD Toolbox           |
|  \\    /   O peration     | Version:  3.0.1                                 |
|   \\  /    A nd           | Web:      www.OpenFOAM.org                      |
|    \\/     M anipulation  |                                                 |
\*---------------------------------------------------------------------------*/
FoamFile
{
    version     2.0;
    format      ascii;
    class       volVectorField;
    location    "2.1";
    object      U;
}
// * * * * * * * * * * * * * * * * * * * * * * * * * * * * * * * * * * * * * //

dimensions      [0 1 -1 0 0 0 0];

internalField   nonuniform List<vector> 
9600
(
(0.827979 -0.00281838 0)
(1.17019 0.00125347 0)
(0.89763 0.00648798 0)
(1.11692 0.00167913 0)
(0.793627 -0.00677807 0)
(1.1734 -0.00643219 0)
(0.900273 -0.00664955 0)
(1.11747 0.00692905 0)
(0.910484 0.009297 0)
(1.09098 0.00442943 0)
(0.866132 0.00710793 0)
(1.09715 -0.00922612 0)
(0.842596 -0.00409332 0)
(1.13015 -0.00560945 0)
(0.841994 -0.00761699 0)
(1.13033 -0.00533063 0)
(0.85822 -0.0076529 0)
(1.12249 -0.00260645 0)
(0.858359 -0.00164945 0)
(1.11715 0.0025041 0)
(0.839439 -0.002892 0)
(1.15986 0.000918728 0)
(0.908264 0.00664692 0)
(1.10507 0.00296887 0)
(0.817355 -0.00753726 0)
(1.15483 -0.00734097 0)
(0.915137 -0.0062825 0)
(1.10544 0.00705875 0)
(0.928313 0.0094051 0)
(1.07196 0.00526822 0)
(0.896772 0.00674383 0)
(1.06532 -0.00845707 0)
(0.88388 -0.00514538 0)
(1.08376 -0.00544818 0)
(0.90149 -0.00780631 0)
(1.07047 -0.00578596 0)
(0.934716 -0.00723931 0)
(1.04236 -0.0029841 0)
(0.961633 -0.000575569 0)
(1.00044 0.00171972 0)
(0.861068 -0.00298127 0)
(1.13785 0.00057677 0)
(0.928104 0.00699344 0)
(1.08553 0.00374991 0)
(0.855409 -0.00819496 0)
(1.12242 -0.00806999 0)
(0.94187 -0.00594001 0)
(1.08051 0.00705614 0)
(0.956078 0.00975976 0)
(1.04432 0.00579755 0)
(0.936553 0.00671083 0)
(1.03167 -0.00819202 0)
(0.93295 -0.00553983 0)
(1.03624 -0.00569586 0)
(0.958426 -0.00756655 0)
(1.02163 -0.00645853 0)
(0.983578 -0.00654866 0)
(1.00279 -0.00368204 0)
(0.991675 0.000311325 0)
(0.987286 0.00243902 0)
(0.889711 -0.00303599 0)
(1.10697 0.000252416 0)
(0.951419 0.00728461 0)
(1.06312 0.00435823 0)
(0.898125 -0.00856972 0)
(1.08372 -0.0087426 0)
(0.970601 -0.0056323 0)
(1.05157 0.00699871 0)
(0.980201 0.0101484 0)
(1.02101 0.00605368 0)
(0.967118 0.00681509 0)
(1.01037 -0.0080769 0)
(0.966174 -0.00556123 0)
(1.00911 -0.00618018 0)
(0.987253 -0.00730079 0)
(1.00323 -0.00694269 0)
(0.997783 -0.00621679 0)
(0.997794 -0.00377899 0)
(0.993997 0.000622791 0)
(0.992576 0.00325751 0)
(0.920484 -0.00304674 0)
(1.0731 -8.52341e-05 0)
(0.972206 0.00750799 0)
(1.04289 0.00481944 0)
(0.936265 -0.00873263 0)
(1.0482 -0.00936907 0)
(0.991695 -0.00539662 0)
(1.02799 0.00697053 0)
(0.994558 0.0104662 0)
(1.00778 0.00621921 0)
(0.984644 0.00691402 0)
(1.00244 -0.00798339 0)
(0.982676 -0.00553679 0)
(0.999146 -0.0065866 0)
(0.996801 -0.00718718 0)
(0.999827 -0.0071986 0)
(0.999933 -0.00601982 0)
(0.998711 -0.00372525 0)
(0.994959 0.000863908 0)
(0.993486 0.00390978 0)
(0.94842 -0.00301931 0)
(1.04256 -0.000387112 0)
(0.986771 0.0076565 0)
(1.02823 0.00511787 0)
(0.964856 -0.00872521 0)
(1.02227 -0.00986964 0)
(1.0018 -0.00525468 0)
(1.01303 0.00699918 0)
(1.00074 0.0106885 0)
(1.00289 0.00633499 0)
(0.993602 0.00695083 0)
(1.00214 -0.00788138 0)
(0.990189 -0.00547842 0)
(0.996943 -0.00685786 0)
(0.999001 -0.00718155 0)
(0.999372 -0.0073287 0)
(0.999915 -0.0058627 0)
(0.998242 -0.00367344 0)
(0.995439 0.00108239 0)
(0.992786 0.00451402 0)
(0.970189 -0.00296185 0)
(1.0196 -0.000610279 0)
(0.994572 0.00769766 0)
(1.01961 0.00527421 0)
(0.983685 -0.00859104 0)
(1.0071 -0.0102017 0)
(1.00327 -0.00520003 0)
(1.00462 0.00704482 0)
(1.00261 0.010805 0)
(1.00231 0.00639246 0)
(0.998636 0.00693152 0)
(1.00445 -0.00776093 0)
(0.994296 -0.00535895 0)
(0.997227 -0.00704961 0)
(0.999301 -0.00718617 0)
(0.998754 -0.00739936 0)
(0.999237 -0.00575805 0)
(0.997054 -0.00354845 0)
(0.994651 0.00126498 0)
(0.991758 0.00511246 0)
(0.984852 -0.00288745 0)
(1.00521 -0.000747906 0)
(0.997412 0.00763123 0)
(1.0153 0.00532167 0)
(0.995073 -0.00838111 0)
(1.00016 -0.0103724 0)
(1.00045 -0.00519302 0)
(0.999535 0.00705312 0)
(1.00277 0.0108216 0)
(1.00309 0.00639008 0)
(1.002 0.00687267 0)
(1.00688 -0.0076192 0)
(0.997185 -0.00519772 0)
(0.998142 -0.00717069 0)
(0.999265 -0.00715248 0)
(0.997907 -0.00743156 0)
(0.998068 -0.00567991 0)
(0.995661 -0.00332227 0)
(0.993242 0.00139225 0)
(0.990526 0.0056667 0)
(0.993422 -0.00280933 0)
(0.997779 -0.000813771 0)
(0.997777 0.00749005 0)
(1.01316 0.00528447 0)
(1.00163 -0.00813715 0)
(0.997959 -0.0104084 0)
(0.996718 -0.00518278 0)
(0.995894 0.007001 0)
(1.00232 0.0107546 0)
(1.00385 0.00632808 0)
(1.00436 0.00678734 0)
(1.00862 -0.00746006 0)
(0.99939 -0.00501857 0)
(0.999098 -0.00720761 0)
(0.999227 -0.00709613 0)
(0.997063 -0.00739555 0)
(0.996712 -0.00560537 0)
(0.994163 -0.00303623 0)
(0.991738 0.00146582 0)
(0.98931 0.00618001 0)
(0.997791 -0.00273492 0)
(0.994747 -0.000830714 0)
(0.997497 0.00731197 0)
(1.01173 0.00518416 0)
(1.00525 -0.00788537 0)
(0.99782 -0.010343 0)
(0.993733 -0.00513794 0)
(0.993167 0.00689543 0)
(1.00171 0.0106214 0)
(1.00418 0.00621174 0)
(1.00587 0.00668252 0)
(1.00959 -0.00728847 0)
(1.00099 -0.00483342 0)
(0.999888 -0.00717005 0)
(0.999225 -0.00702939 0)
(0.99635 -0.00726544 0)
(0.995455 -0.0055387 0)
(0.992718 -0.00272116 0)
(0.990367 0.00151855 0)
(0.988299 0.00664491 0)
(0.999755 -0.00266619 0)
(0.99392 -0.000821366 0)
(0.997368 0.00712399 0)
(1.01046 0.00504416 0)
(1.00709 -0.00763884 0)
(0.99828 -0.0102099 0)
(0.991867 -0.00505265 0)
(0.991324 0.00675248 0)
(1.00119 0.01044 0)
(1.00419 0.00605366 0)
(1.00668 0.00656067 0)
(1.00997 -0.00710536 0)
(1.00204 -0.00465507 0)
(1.00045 -0.00707243 0)
(0.99924 -0.00695313 0)
(0.995816 -0.00704467 0)
(0.99446 -0.00549043 0)
(0.991513 -0.00235793 0)
(0.989263 0.00158452 0)
(0.987578 0.00701452 0)
(1.00056 -0.00260229 0)
(0.993948 -0.000801801 0)
(0.997497 0.00694129 0)
(1.00931 0.00488177 0)
(1.00787 -0.00740099 0)
(0.99873 -0.0100352 0)
(0.990923 -0.00493357 0)
(0.990289 0.0065859 0)
(1.00089 0.0102279 0)
(1.00405 0.00586715 0)
(1.007 0.00642547 0)
(1.01 -0.00691025 0)
(1.00265 -0.00449555 0)
(1.00078 -0.00691933 0)
(0.99925 -0.00687962 0)
(0.995452 -0.00674799 0)
(0.993785 -0.00544045 0)
(0.99066 -0.00196264 0)
(0.988513 0.00168002 0)
(0.987178 0.00724866 0)
(1.00087 -0.00254156 0)
(0.99419 -0.000780199 0)
(0.997761 0.00676815 0)
(1.00837 0.00470859 0)
(1.00805 -0.0071697 0)
(0.999003 -0.00983657 0)
(0.990581 -0.0047914 0)
(0.989856 0.00640462 0)
(1.00079 0.00999679 0)
(1.00392 0.00566545 0)
(1.00704 0.00627858 0)
(1.00984 -0.00669971 0)
(1.00297 -0.00436227 0)
(1.00092 -0.00671121 0)
(0.999247 -0.00682301 0)
(0.995223 -0.00639184 0)
(0.993408 -0.00536844 0)
(0.99017 -0.00157439 0)
(0.988135 0.00182338 0)
(0.987094 0.00734561 0)
(1.00099 -0.00248231 0)
(0.994414 -0.000759852 0)
(0.998054 0.00660281 0)
(1.00768 0.00453116 0)
(1.00796 -0.00694095 0)
(0.99911 -0.00962559 0)
(0.990576 -0.00463647 0)
(0.989797 0.00621489 0)
(1.00083 0.0097517 0)
(1.00385 0.00546006 0)
(1.00694 0.006118 0)
(1.00961 -0.00646895 0)
(1.00313 -0.00425657 0)
(1.00093 -0.00645509 0)
(0.999238 -0.00678203 0)
(0.995088 -0.00600106 0)
(0.993266 -0.00526918 0)
(0.98999 -0.00120633 0)
(0.988074 0.00203883 0)
(0.987282 0.00733318 0)
(1.00106 -0.00242315 0)
(0.994571 -0.000741975 0)
(0.998328 0.00644191 0)
(1.00719 0.00435212 0)
(1.00776 -0.00671072 0)
(0.999109 -0.00940845 0)
(0.990739 -0.00447578 0)
(0.989935 0.00601862 0)
(1.00095 0.00949614 0)
(1.00383 0.00525372 0)
(1.0068 0.00594626 0)
(1.00936 -0.00621572 0)
(1.00322 -0.00417425 0)
(1.00086 -0.0061606 0)
(0.999236 -0.00675237 0)
(0.995016 -0.00558597 0)
(0.993287 -0.00514152 0)
(0.990039 -0.00089444 0)
(0.988243 0.00232319 0)
(0.98767 0.00724484 0)
(1.0011 -0.00236311 0)
(0.994676 -0.00072682 0)
(0.998568 0.00628253 0)
(1.00684 0.00417142 0)
(1.00755 -0.00647706 0)
(0.999061 -0.00918642 0)
(0.990981 -0.0043142 0)
(0.990165 0.00581743 0)
(1.00109 0.00922945 0)
(1.00383 0.00505049 0)
(1.00664 0.00576265 0)
(1.0091 -0.0059379 0)
(1.00328 -0.00411713 0)
(1.00076 -0.00582841 0)
(0.999249 -0.00673191 0)
(0.994993 -0.00516208 0)
(0.993406 -0.0049641 0)
(0.990247 -0.000653639 0)
(0.988555 0.00266039 0)
(0.988178 0.00711622 0)
(1.00113 -0.0023018 0)
(0.994757 -0.000714072 0)
(0.99877 0.00612206 0)
(1.00657 0.00398952 0)
(1.00735 -0.00623942 0)
(0.999014 -0.00895906 0)
(0.991261 -0.00415492 0)
(0.990434 0.00561451 0)
(1.00121 0.00894854 0)
(1.00383 0.00485768 0)
(1.00645 0.00556261 0)
(1.00884 -0.00563558 0)
(1.00333 -0.00408231 0)
(1.00065 -0.0054693 0)
(0.999278 -0.00670396 0)
(0.995013 -0.00475744 0)
(0.993579 -0.00471819 0)
(0.990558 -0.000484884 0)
(0.988944 0.00302082 0)
(0.988743 0.00697938 0)
(1.00116 -0.00223915 0)
(0.994841 -0.00070324 0)
(0.998931 0.00595949 0)
(1.00633 0.00380692 0)
(1.00715 -0.00599811 0)
(0.998993 -0.00872599 0)
(0.991562 -0.00399985 0)
(0.990719 0.00541292 0)
(1.0013 0.00865352 0)
(1.0038 0.0046744 0)
(1.00622 0.00534944 0)
(1.00857 -0.00531374 0)
(1.00337 -0.00406145 0)
(1.00054 -0.00509347 0)
(0.999316 -0.00665771 0)
(0.995075 -0.00438833 0)
(0.993777 -0.00440103 0)
(0.990939 -0.000367958 0)
(0.989372 0.00337197 0)
(0.98932 0.00686083 0)
(1.00116 -0.00217524 0)
(0.994947 -0.000693825 0)
(0.999051 0.00579477 0)
(1.00612 0.00362418 0)
(1.00694 -0.00575523 0)
(0.999008 -0.00848562 0)
(0.991873 -0.00385108 0)
(0.991018 0.00521531 0)
(1.00134 0.00834486 0)
(1.00375 0.00450034 0)
(1.00595 0.00512179 0)
(1.00828 -0.00497335 0)
(1.0034 -0.00405342 0)
(1.00044 -0.00470862 0)
(0.999354 -0.00657979 0)
(0.995176 -0.00406334 0)
(0.993982 -0.00402229 0)
(0.991368 -0.00027991 0)
(0.989816 0.00368915 0)
(0.989886 0.00678501 0)
(1.00114 -0.00211035 0)
(0.995085 -0.000684981 0)
(0.999132 0.00562682 0)
(1.00593 0.00344199 0)
(1.0067 -0.00551347 0)
(0.999058 -0.00823529 0)
(0.992186 -0.0037106 0)
(0.991333 0.00502351 0)
(1.00134 0.00802244 0)
(1.00369 0.0043364 0)
(1.00565 0.00488209 0)
(1.008 -0.0046222 0)
(1.0034 -0.00404879 0)
(1.00034 -0.00433298 0)
(0.999384 -0.00645408 0)
(0.995313 -0.00378035 0)
(0.994183 -0.00359791 0)
(0.991832 -0.000224804 0)
(0.990272 0.00394951 0)
(0.99043 0.00676272 0)
(1.00108 -0.00204481 0)
(0.995259 -0.000675623 0)
(0.999178 0.0054543 0)
(1.00576 0.00326165 0)
(1.00644 -0.00527559 0)
(0.999139 -0.00797314 0)
(0.992492 -0.00358076 0)
(0.991668 0.0048405 0)
(1.00131 0.00768663 0)
(1.00363 0.00418121 0)
(1.00532 0.00463535 0)
(1.00771 -0.00427084 0)
(1.0034 -0.00403453 0)
(1.00025 -0.00397331 0)
(0.999398 -0.00628581 0)
(0.995485 -0.0035384 0)
(0.994373 -0.00313846 0)
(0.992316 -0.00018094 0)
(0.990738 0.00414105 0)
(0.990947 0.00679006 0)
(1.001 -0.00197896 0)
(0.995467 -0.000665093 0)
(0.999193 0.00527669 0)
(1.00562 0.00308628 0)
(1.00616 -0.00504399 0)
(0.999242 -0.00770053 0)
(0.992789 -0.00345957 0)
(0.992022 0.00466464 0)
(1.00125 0.0073409 0)
(1.00358 0.00403217 0)
(1.00497 0.00438629 0)
(1.00742 -0.00392564 0)
(1.00337 -0.00400784 0)
(1.00018 -0.00363266 0)
(0.999395 -0.00607244 0)
(0.995686 -0.00333389 0)
(0.994551 -0.00266404 0)
(0.992808 -0.000120566 0)
(0.991219 0.00425738 0)
(0.991439 0.00685139 0)
(1.00089 -0.00191337 0)
(0.9957 -0.000652148 0)
(0.999184 0.00509253 0)
(1.0055 0.00291827 0)
(1.00587 -0.00482038 0)
(0.999358 -0.00741563 0)
(0.993075 -0.00335078 0)
(0.992391 0.00449843 0)
(1.00118 0.00698686 0)
(1.00354 0.00388582 0)
(1.00461 0.00414459 0)
(1.00713 -0.00359541 0)
(1.00335 -0.00396759 0)
(1.00011 -0.00331324 0)
(0.999379 -0.00581228 0)
(0.995911 -0.00315795 0)
(0.994722 -0.00218327 0)
(0.993296 -2.68536e-05 0)
(0.991716 0.00430354 0)
(0.991905 0.00692563 0)
(1.00077 -0.00184779 0)
(0.995947 -0.000636714 0)
(0.999165 0.00490095 0)
(1.00538 0.00275834 0)
(1.00557 -0.00460707 0)
(0.999478 -0.0071171 0)
(0.993357 -0.00325255 0)
(0.992765 0.00433962 0)
(1.00111 0.00662983 0)
(1.0035 0.00373944 0)
(1.00427 0.00391461 0)
(1.00684 -0.00327958 0)
(1.00332 -0.00390796 0)
(1.00004 -0.00301534 0)
(0.999353 -0.00551292 0)
(0.996155 -0.00300244 0)
(0.994895 -0.00170988 0)
(0.993768 9.84745e-05 0)
(0.99223 0.00428694 0)
(0.992349 0.00699363 0)
(1.00065 -0.00178293 0)
(0.996195 -0.000616834 0)
(0.999146 0.00469932 0)
(1.00525 0.00260827 0)
(1.00528 -0.00440488 0)
(0.999593 -0.00680845 0)
(0.993641 -0.00315921 0)
(0.993134 0.00418568 0)
(1.00104 0.00627476 0)
(1.00346 0.00358187 0)
(1.00393 0.00370142 0)
(1.00654 -0.00297691 0)
(1.0033 -0.00383057 0)
(0.999989 -0.00273143 0)
(0.999324 -0.00517723 0)
(0.996415 -0.0028622 0)
(0.995076 -0.00125506 0)
(0.994217 0.000256398 0)
(0.992762 0.00421421 0)
(0.992775 0.00704762 0)
(1.00053 -0.00171966 0)
(0.996431 -0.00059091 0)
(0.999138 0.00448647 0)
(1.0051 0.00246904 0)
(1.00501 -0.00421246 0)
(0.999696 -0.00648847 0)
(0.993933 -0.00307954 0)
(0.993492 0.00403286 0)
(1.00098 0.00592538 0)
(1.00342 0.00341068 0)
(1.00362 0.00350431 0)
(1.00623 -0.00268663 0)
(1.00329 -0.00374294 0)
(0.99994 -0.00245685 0)
(0.999294 -0.00480529 0)
(0.996688 -0.00273274 0)
(0.995273 -0.000824486 0)
(0.994636 0.000454506 0)
(0.993311 0.00408781 0)
(0.993192 0.0070765 0)
(1.00044 -0.00165715 0)
(0.996649 -0.000560802 0)
(0.999148 0.00426498 0)
(1.00493 0.00234007 0)
(1.00475 -0.0040331 0)
(0.999783 -0.00615727 0)
(0.994234 -0.00300422 0)
(0.993836 0.00386973 0)
(1.00093 0.00559428 0)
(1.00336 0.00322644 0)
(1.00333 0.00332165 0)
(1.00591 -0.0024042 0)
(1.0033 -0.00364828 0)
(0.999902 -0.00219884 0)
(0.999265 -0.00439913 0)
(0.996972 -0.00260946 0)
(0.995492 -0.000431 0)
(0.99502 0.000695794 0)
(0.99387 0.00391494 0)
(0.993612 0.00704791 0)
(1.00038 -0.00159625 0)
(0.996848 -0.000523304 0)
(0.999178 0.00403024 0)
(1.00474 0.00222269 0)
(1.00451 -0.00386421 0)
(0.999856 -0.00582393 0)
(0.994543 -0.00292049 0)
(0.994166 0.00369536 0)
(1.00088 0.00528222 0)
(1.00329 0.00302917 0)
(1.00306 0.00315077 0)
(1.00558 -0.00212474 0)
(1.00331 -0.00353882 0)
(0.999878 -0.00196047 0)
(0.999237 -0.00396228 0)
(0.997264 -0.00248308 0)
(0.995739 -8.49578e-05 0)
(0.99537 0.000981544 0)
(0.99443 0.00372657 0)
(0.994054 0.00692354 0)
(1.00033 -0.00153837 0)
(0.997029 -0.00047679 0)
(0.999225 0.0037847 0)
(1.00453 0.00211234 0)
(1.00427 -0.00370067 0)
(0.999916 -0.00549135 0)
(0.99486 -0.00283382 0)
(0.994484 0.00350526 0)
(1.00084 0.00498478 0)
(1.00322 0.00282597 0)
(1.00281 0.00298577 0)
(1.00524 -0.00184298 0)
(1.00333 -0.00341919 0)
(0.99987 -0.0017355 0)
(0.999208 -0.00349583 0)
(0.997561 -0.00234586 0)
(0.996019 0.000202743 0)
(0.995688 0.00130241 0)
(0.994974 0.00357017 0)
(0.99453 0.00668835 0)
(1.00029 -0.00148174 0)
(0.997197 -0.000425104 0)
(0.999285 0.0035324 0)
(1.00432 0.00200797 0)
(1.00404 -0.00354161 0)
(0.999965 -0.00516807 0)
(0.995179 -0.0027368 0)
(0.994793 0.00329686 0)
(1.00081 0.00470685 0)
(1.00314 0.0026192 0)
(1.00258 0.00282084 0)
(1.0049 -0.00156147 0)
(1.00335 -0.00329146 0)
(0.999882 -0.00152829 0)
(0.999175 -0.00300363 0)
(0.997855 -0.00218707 0)
(0.996333 0.000425854 0)
(0.995984 0.00163169 0)
(0.995484 0.00348277 0)
(0.995038 0.00636696 0)
(1.00027 -0.00142701 0)
(0.997353 -0.000366792 0)
(0.999351 0.00327339 0)
(1.0041 0.00190678 0)
(1.00382 -0.00338261 0)
(1.00001 -0.00486178 0)
(0.995497 -0.00262006 0)
(0.995097 0.00307663 0)
(1.00077 0.00444066 0)
(1.00306 0.00241858 0)
(1.00236 0.00265851 0)
(1.00455 -0.00128621 0)
(1.00336 -0.0031436 0)
(0.999917 -0.00134782 0)
(0.999138 -0.00249944 0)
(0.998138 -0.00199627 0)
(0.996678 0.000592102 0)
(0.99627 0.0019398 0)
(0.995949 0.00347525 0)
(0.995564 0.00601534 0)
(1.00025 -0.00137551 0)
(0.997501 -0.00030174 0)
(0.99942 0.00301185 0)
(1.00389 0.00180785 0)
(1.00359 -0.00321697 0)
(1.00004 -0.00457881 0)
(0.995811 -0.00248476 0)
(0.995396 0.00284805 0)
(1.00073 0.00417817 0)
(1.00298 0.00222877 0)
(1.00216 0.00249885 0)
(1.00421 -0.00100917 0)
(1.00336 -0.00297513 0)
(0.999974 -0.0011849 0)
(0.999099 -0.00199389 0)
(0.998402 -0.00177377 0)
(0.997049 0.000712259 0)
(0.996559 0.00220384 0)
(0.996366 0.00352607 0)
(0.996087 0.00569211 0)
(1.00024 -0.00132535 0)
(0.997643 -0.000235317 0)
(0.999486 0.00275296 0)
(1.00368 0.00170459 0)
(1.00337 -0.00303526 0)
(1.00007 -0.00432719 0)
(0.996119 -0.00233613 0)
(0.995688 0.00261613 0)
(1.0007 0.00391616 0)
(1.00289 0.00204445 0)
(1.00198 0.00234659 0)
(1.00387 -0.000734802 0)
(1.00335 -0.00278751 0)
(1.00006 -0.0010333 0)
(0.999059 -0.00149825 0)
(0.998641 -0.00152096 0)
(0.997439 0.000797346 0)
(0.996857 0.00242196 0)
(0.996742 0.00360228 0)
(0.996585 0.00543061 0)
(1.00022 -0.00127691 0)
(0.997778 -0.000168281 0)
(0.999549 0.00250054 0)
(1.00348 0.00158495 0)
(1.00315 -0.00283438 0)
(1.0001 -0.00409577 0)
(0.99642 -0.0021805 0)
(0.995973 0.00239496 0)
(1.00066 0.00364459 0)
(1.00281 0.00187119 0)
(1.00181 0.00220542 0)
(1.00353 -0.000467096 0)
(1.00333 -0.00257964 0)
(1.00016 -0.000899611 0)
(0.999023 -0.00102273 0)
(0.998849 -0.00124148 0)
(0.99784 0.000849788 0)
(0.99717 0.00259929 0)
(0.997083 0.00368458 0)
(0.997048 0.00522444 0)
(1.00021 -0.00122898 0)
(0.997908 -0.000103463 0)
(0.999606 0.00225971 0)
(1.00329 0.00144623 0)
(1.00294 -0.00261594 0)
(1.00013 -0.00388349 0)
(0.996713 -0.0020248 0)
(0.996247 0.00219577 0)
(1.00062 0.00336906 0)
(1.00273 0.0017087 0)
(1.00167 0.00207163 0)
(1.0032 -0.000199 0)
(1.00329 -0.00234894 0)
(1.00029 -0.000787264 0)
(0.998996 -0.000579036 0)
(0.999022 -0.000932959 0)
(0.998246 0.000873961 0)
(0.997501 0.00273091 0)
(0.997396 0.00377263 0)
(0.997471 0.00505306 0)
(1.0002 -0.00118189 0)
(0.998031 -4.45475e-05 0)
(0.999657 0.0020415 0)
(1.0031 0.00128365 0)
(1.00272 -0.00238702 0)
(1.00015 -0.00368108 0)
(0.997 -0.00188477 0)
(0.996509 0.00201752 0)
(1.00058 0.00310655 0)
(1.00265 0.00154786 0)
(1.00154 0.00195484 0)
(1.00288 7.14688e-05 0)
(1.00324 -0.00209204 0)
(1.00045 -0.000697396 0)
(0.998985 -0.00018456 0)
(0.999158 -0.00059751 0)
(0.998648 0.000882243 0)
(0.997857 0.00280528 0)
(0.997686 0.00387061 0)
(0.99785 0.00491011 0)
(1.00019 -0.0011343 0)
(0.99815 6.93829e-06 0)
(0.999701 0.00184621 0)
(1.00293 0.00109445 0)
(1.00252 -0.00215463 0)
(1.00017 -0.0034715 0)
(0.99728 -0.00176529 0)
(0.996761 0.00186449 0)
(1.00054 0.00286225 0)
(1.00258 0.00139418 0)
(1.00144 0.00185615 0)
(1.00257 0.000330638 0)
(1.00317 -0.00181989 0)
(1.00061 -0.000632366 0)
(0.998997 0.000173226 0)
(0.999257 -0.000235513 0)
(0.999033 0.000896192 0)
(0.998243 0.00281479 0)
(0.997965 0.00396831 0)
(0.998181 0.00480564 0)
(1.00018 -0.00108503 0)
(0.998262 4.59328e-05 0)
(0.999737 0.00167424 0)
(1.00275 0.000890552 0)
(1.00231 -0.00192905 0)
(1.00019 -0.00324985 0)
(0.997554 -0.00166219 0)
(0.997003 0.00173445 0)
(1.0005 0.00264437 0)
(1.00251 0.00125414 0)
(1.00135 0.00175501 0)
(1.00227 0.000571883 0)
(1.00307 -0.00153704 0)
(1.0008 -0.000588254 0)
(0.99904 0.000475559 0)
(0.99932 0.000142736 0)
(0.999387 0.000936849 0)
(0.998656 0.0027606 0)
(0.998246 0.00403749 0)
(0.998463 0.00474769 0)
(1.00017 -0.00103495 0)
(0.99837 7.03822e-05 0)
(0.999763 0.00153114 0)
(1.00259 0.000677627 0)
(1.00212 -0.00172826 0)
(1.00019 -0.00301186 0)
(0.99782 -0.00157323 0)
(0.997238 0.00162587 0)
(1.00045 0.00246622 0)
(1.00244 0.00112782 0)
(1.0013 0.00164585 0)
(1.00199 0.000788079 0)
(1.00295 -0.00124346 0)
(1.00099 -0.000553382 0)
(0.999121 0.000702527 0)
(0.999359 0.000522294 0)
(0.999696 0.00102242 0)
(0.999088 0.00266407 0)
(0.998546 0.00405619 0)
(0.998705 0.00472951 0)
(1.00016 -0.000981952 0)
(0.998474 7.84469e-05 0)
(0.99978 0.00141338 0)
(1.00243 0.000460013 0)
(1.00194 -0.00155892 0)
(1.00019 -0.00276294 0)
(0.998078 -0.00149088 0)
(0.997467 0.00153058 0)
(1.0004 0.00233098 0)
(1.00236 0.00102126 0)
(1.00126 0.00152282 0)
(1.00173 0.00097432 0)
(1.00281 -0.000934895 0)
(1.00118 -0.000512162 0)
(0.999246 0.000866239 0)
(0.999386 0.000884314 0)
(0.999952 0.00115568 0)
(0.999524 0.00255285 0)
(0.998876 0.00401547 0)
(0.998923 0.0047267 0)
(1.00015 -0.000926437 0)
(0.998575 6.68564e-05 0)
(0.999787 0.00131918 0)
(1.00228 0.000255986 0)
(1.00177 -0.00142831 0)
(1.00018 -0.00250593 0)
(0.998326 -0.00140932 0)
(0.997694 0.00143858 0)
(1.00034 0.00223659 0)
(1.00229 0.000942996 0)
(1.00125 0.00138913 0)
(1.0015 0.00112949 0)
(1.00264 -0.000616156 0)
(1.00135 -0.000454102 0)
(0.999411 0.000968409 0)
(0.999413 0.00120718 0)
(1.00015 0.00132558 0)
(0.999946 0.00244728 0)
(0.99924 0.00391533 0)
(0.999137 0.004709 0)
(1.00014 -0.000868024 0)
(0.998673 4.00271e-05 0)
(0.999787 0.00123844 0)
(1.00213 6.70231e-05 0)
(1.00162 -0.00133877 0)
(1.00017 -0.00224834 0)
(0.998563 -0.00132792 0)
(0.99792 0.00134854 0)
(1.00028 0.00218107 0)
(1.0022 0.000901231 0)
(1.00126 0.00125526 0)
(1.0013 0.00124366 0)
(1.00246 -0.000300296 0)
(1.00151 -0.000371615 0)
(0.999614 0.00102142 0)
(0.999455 0.00148306 0)
(1.0003 0.00152435 0)
(1.00034 0.00236549 0)
(0.999633 0.00376909 0)
(0.999363 0.00465797 0)
(1.00013 -0.000806088 0)
(0.99877 -8.20749e-08 0)
(0.99978 0.00116896 0)
(1.00199 -9.66043e-05 0)
(1.00149 -0.00128596 0)
(1.00016 -0.00200085 0)
(0.998788 -0.00124933 0)
(0.99815 0.00125278 0)
(1.00022 0.00215841 0)
(1.0021 0.000902643 0)
(1.00127 0.00112165 0)
(1.00114 0.00131667 0)
(1.00226 6.89977e-06 0)
(1.00165 -0.000254334 0)
(0.999848 0.00104249 0)
(0.999522 0.00170475 0)
(1.0004 0.00173939 0)
(1.00068 0.00231671 0)
(1.00004 0.00359214 0)
(0.999616 0.0045623 0)
(1.00012 -0.000745731 0)
(0.998865 -4.95581e-05 0)
(0.999769 0.00110669 0)
(1.00184 -0.000213026 0)
(1.00137 -0.00126584 0)
(1.00015 -0.00176109 0)
(0.998999 -0.00117346 0)
(0.998386 0.00115308 0)
(1.00017 0.00215218 0)
(1.00198 0.000940043 0)
(1.0013 0.00100682 0)
(1.00101 0.00135848 0)
(1.00207 0.000295654 0)
(1.00175 -0.000106157 0)
(1.0001 0.00104628 0)
(0.999621 0.0018673 0)
(1.00047 0.00195886 0)
(1.00097 0.00231053 0)
(1.00046 0.0034046 0)
(0.999904 0.00441965 0)
(1.00011 -0.000678732 0)
(0.998959 -0.000111621 0)
(0.999757 0.00104968 0)
(1.00169 -0.00029754 0)
(1.00127 -0.001251 0)
(1.00014 -0.00153405 0)
(0.999193 -0.00104808 0)
(0.998629 0.00104154 0)
(1.00014 0.00211128 0)
(1.00186 0.000986581 0)
(1.00132 0.000919235 0)
(1.00093 0.0013629 0)
(1.00188 0.000558577 0)
(1.00182 6.8553e-05 0)
(1.00036 0.00104694 0)
(0.999758 0.00196884 0)
(1.00052 0.0021644 0)
(1.00119 0.00235085 0)
(1.00086 0.0032283 0)
(1.00023 0.00423584 0)
(1.0001 -0.000612452 0)
(0.999053 -0.000178476 0)
(0.999745 0.000993645 0)
(1.00154 -0.000339721 0)
(1.00119 -0.00121847 0)
(1.00014 -0.00131587 0)
(0.999371 -0.000883546 0)
(0.998865 0.000904274 0)
(1.00012 0.00199996 0)
(1.00172 0.00102901 0)
(1.00134 0.000858433 0)
(1.00088 0.00133712 0)
(1.0017 0.000782468 0)
(1.00186 0.000255143 0)
(1.00062 0.00105192 0)
(0.999933 0.00201507 0)
(1.00056 0.00233253 0)
(1.00135 0.00242678 0)
(1.00121 0.00308051 0)
(1.00058 0.00401979 0)
(1.00009 -0.00054973 0)
(0.999147 -0.000241209 0)
(0.999738 0.000930063 0)
(1.0014 -0.000330487 0)
(1.00113 -0.00118004 0)
(1.00016 -0.00110912 0)
(0.999528 -0.000721831 0)
(0.999089 0.0007579 0)
(1.00012 0.00184369 0)
(1.00159 0.00107006 0)
(1.00136 0.000830977 0)
(1.00086 0.00131162 0)
(1.00155 0.000973198 0)
(1.00187 0.00044798 0)
(1.00087 0.00107025 0)
(1.00014 0.00202386 0)
(1.00062 0.00245326 0)
(1.00146 0.00252238 0)
(1.00152 0.00297946 0)
(1.00094 0.00379388 0)
(1.00009 -0.000484721 0)
(0.99924 -0.000301692 0)
(0.999738 0.000856353 0)
(1.00125 -0.000291063 0)
(1.00108 -0.00112571 0)
(1.00019 -0.000947727 0)
(0.999666 -0.000558584 0)
(0.999294 0.000644968 0)
(1.00013 0.00168511 0)
(1.00147 0.00110231 0)
(1.00137 0.000829704 0)
(1.00086 0.00128504 0)
(1.00142 0.00113449 0)
(1.00186 0.000645715 0)
(1.0011 0.00110418 0)
(1.00038 0.00200866 0)
(1.00071 0.00252883 0)
(1.00154 0.00261784 0)
(1.00176 0.00293154 0)
(1.00129 0.00358677 0)
(1.00008 -0.000426006 0)
(0.99933 -0.000352177 0)
(0.999748 0.000771121 0)
(1.00112 -0.000229006 0)
(1.00103 -0.00105583 0)
(1.00023 -0.000835083 0)
(0.999792 -0.000403773 0)
(0.999482 0.000584748 0)
(1.00017 0.00154465 0)
(1.00136 0.00111544 0)
(1.00137 0.000840816 0)
(1.00089 0.00125863 0)
(1.00131 0.0012616 0)
(1.00183 0.000835463 0)
(1.0013 0.00115132 0)
(1.00063 0.00197223 0)
(1.00082 0.00255979 0)
(1.0016 0.00269033 0)
(1.00195 0.00291575 0)
(1.00161 0.00341511 0)
(1.00007 -0.000370788 0)
(0.999418 -0.000389842 0)
(0.999769 0.000673891 0)
(1.00099 -0.000159274 0)
(1.00099 -0.000973411 0)
(1.00028 -0.000745429 0)
(0.999914 -0.000262899 0)
(0.999654 0.000559926 0)
(1.00021 0.00141672 0)
(1.00127 0.00111008 0)
(1.00137 0.00085822 0)
(1.00094 0.0012357 0)
(1.00124 0.0013629 0)
(1.00179 0.00101271 0)
(1.00147 0.0012157 0)
(1.00089 0.00192645 0)
(1.00096 0.00254918 0)
(1.00166 0.00273206 0)
(1.00209 0.00290696 0)
(1.00188 0.00328275 0)
(1.00007 -0.000321234 0)
(0.9995 -0.000413438 0)
(0.999801 0.000565796 0)
(1.00087 -8.73325e-05 0)
(1.00095 -0.000865103 0)
(1.00034 -0.000674359 0)
(1.00003 -0.000148418 0)
(0.999811 0.00055743 0)
(1.00026 0.00131301 0)
(1.0012 0.00110239 0)
(1.00138 0.000876661 0)
(1.001 0.00120819 0)
(1.0012 0.00143681 0)
(1.00175 0.00117522 0)
(1.00161 0.00129363 0)
(1.00114 0.00188717 0)
(1.00113 0.00250947 0)
(1.00174 0.00274648 0)
(1.0022 0.00289518 0)
(1.00211 0.0031812 0)
(1.00007 -0.000277755 0)
(0.999577 -0.000419547 0)
(0.999842 0.000455404 0)
(1.00077 -2.38661e-05 0)
(1.0009 -0.000737151 0)
(1.00041 -0.000610395 0)
(1.00016 -6.39541e-05 0)
(0.999958 0.000564481 0)
(1.00031 0.00124035 0)
(1.00113 0.00109781 0)
(1.00138 0.000898519 0)
(1.00108 0.00118043 0)
(1.00119 0.00148162 0)
(1.00171 0.0013212 0)
(1.00173 0.00138151 0)
(1.00138 0.00185749 0)
(1.00132 0.00245 0)
(1.00182 0.00273125 0)
(1.00229 0.00287321 0)
(1.00229 0.00309468 0)
(1.00006 -0.000241412 0)
(0.999647 -0.00040688 0)
(0.999891 0.000346983 0)
(1.00069 2.59752e-05 0)
(1.00086 -0.000594516 0)
(1.00048 -0.000542452 0)
(1.00028 -1.1619e-05 0)
(1.0001 0.000569678 0)
(1.00036 0.00119026 0)
(1.00108 0.00109706 0)
(1.00138 0.000924733 0)
(1.00117 0.00115634 0)
(1.00122 0.00150224 0)
(1.00169 0.00144032 0)
(1.00181 0.00147769 0)
(1.00159 0.00184215 0)
(1.00152 0.00238046 0)
(1.00193 0.00269091 0)
(1.00238 0.0028382 0)
(1.00244 0.00301686 0)
(1.00006 -0.00021062 0)
(0.999709 -0.000379249 0)
(0.999944 0.000250716 0)
(1.00063 5.71116e-05 0)
(1.00082 -0.000450627 0)
(1.00054 -0.000464266 0)
(1.0004 1.84265e-05 0)
(1.00024 0.000565266 0)
(1.00043 0.0011563 0)
(1.00104 0.00111034 0)
(1.00139 0.000957347 0)
(1.00126 0.00113296 0)
(1.00127 0.00150221 0)
(1.00168 0.00152475 0)
(1.00188 0.00156769 0)
(1.00178 0.00184539 0)
(1.00172 0.00231131 0)
(1.00204 0.00263374 0)
(1.00246 0.0027903 0)
(1.00256 0.00294428 0)
(1.00006 -0.000185019 0)
(0.999762 -0.000339616 0)
(0.999997 0.000172551 0)
(1.00058 6.80855e-05 0)
(1.00078 -0.000314087 0)
(1.00059 -0.000369981 0)
(1.00052 4.19053e-05 0)
(1.00038 0.000541633 0)
(1.0005 0.00112378 0)
(1.00101 0.00113484 0)
(1.00138 0.00100203 0)
(1.00135 0.00111834 0)
(1.00134 0.00148485 0)
(1.0017 0.00158314 0)
(1.00194 0.00164075 0)
(1.00194 0.001861 0)
(1.00191 0.00225098 0)
(1.00218 0.00256363 0)
(1.00254 0.00272794 0)
(1.00267 0.00286334 0)
(1.00006 -0.000164134 0)
(0.999807 -0.000292456 0)
(1.00005 0.000115311 0)
(1.00055 6.33377e-05 0)
(1.00075 -0.000193136 0)
(1.00063 -0.000264767 0)
(1.00063 7.02254e-05 0)
(1.00052 0.00050898 0)
(1.00058 0.0010851 0)
(1.00099 0.00115884 0)
(1.00137 0.00105809 0)
(1.00143 0.00111944 0)
(1.00143 0.00145186 0)
(1.00173 0.0016128 0)
(1.00199 0.00169452 0)
(1.00208 0.00187321 0)
(1.00209 0.00220098 0)
(1.00231 0.00248832 0)
(1.00263 0.00265799 0)
(1.00277 0.00277143 0)
(1.00006 -0.000144751 0)
(0.999844 -0.000246025 0)
(1.00009 8.08074e-05 0)
(1.00054 4.78047e-05 0)
(1.00073 -9.22459e-05 0)
(1.00067 -0.000153515 0)
(1.00072 0.000110461 0)
(1.00066 0.000477923 0)
(1.00067 0.0010369 0)
(1.00099 0.00117578 0)
(1.00135 0.00112147 0)
(1.00149 0.00113935 0)
(1.00153 0.00141988 0)
(1.00179 0.00161096 0)
(1.00205 0.0017283 0)
(1.0022 0.00187586 0)
(1.00225 0.0021525 0)
(1.00244 0.00241237 0)
(1.00271 0.00258539 0)
(1.00286 0.00267691 0)
(1.00006 -0.000126573 0)
(0.999876 -0.000203874 0)
(1.00012 6.75302e-05 0)
(1.00053 3.16888e-05 0)
(1.00072 -1.39127e-05 0)
(1.00069 -4.23712e-05 0)
(1.00079 0.000171837 0)
(1.00079 0.000455708 0)
(1.00078 0.00097811 0)
(1.00101 0.00117904 0)
(1.00134 0.00118259 0)
(1.00154 0.00117316 0)
(1.00162 0.00140153 0)
(1.00187 0.00158973 0)
(1.00211 0.00173824 0)
(1.00231 0.00187395 0)
(1.00239 0.00210162 0)
(1.00257 0.00233361 0)
(1.00279 0.00250886 0)
(1.00294 0.00258592 0)
(1.00005 -0.000108781 0)
(0.999904 -0.000168021 0)
(1.00015 6.99048e-05 0)
(1.00053 2.35358e-05 0)
(1.00072 4.24672e-05 0)
(1.00072 5.99926e-05 0)
(1.00085 0.000248943 0)
(1.0009 0.000451844 0)
(1.00089 0.000919279 0)
(1.00104 0.00116499 0)
(1.00133 0.00123393 0)
(1.00157 0.00121589 0)
(1.0017 0.00139339 0)
(1.00194 0.00156441 0)
(1.00218 0.00172158 0)
(1.0024 0.00186168 0)
(1.00252 0.00205327 0)
(1.0027 0.00224939 0)
(1.00287 0.00242596 0)
(1.00301 0.00249894 0)
(1.00005 -9.04335e-05 0)
(0.999928 -0.000139154 0)
(1.00017 8.23614e-05 0)
(1.00053 2.79861e-05 0)
(1.00073 8.42694e-05 0)
(1.00074 0.000147434 0)
(1.00089 0.000329467 0)
(1.00098 0.000469832 0)
(1.00099 0.000870593 0)
(1.0011 0.00113171 0)
(1.00133 0.00126826 0)
(1.00159 0.00126516 0)
(1.00176 0.00139547 0)
(1.00201 0.00154354 0)
(1.00225 0.00169163 0)
(1.00249 0.00182765 0)
(1.00263 0.00200622 0)
(1.00282 0.00216322 0)
(1.00295 0.00233201 0)
(1.00306 0.00241143 0)
(1.00005 -7.22405e-05 0)
(0.99995 -0.000115923 0)
(1.00019 0.000101572 0)
(1.00053 4.56401e-05 0)
(1.00074 0.000117886 0)
(1.00077 0.000214931 0)
(1.00092 0.000408118 0)
(1.00105 0.000509371 0)
(1.00109 0.000840756 0)
(1.00116 0.00108982 0)
(1.00135 0.00127855 0)
(1.0016 0.00130697 0)
(1.00181 0.00140892 0)
(1.00208 0.0015239 0)
(1.00232 0.00166309 0)
(1.00257 0.0017768 0)
(1.00272 0.00194798 0)
(1.00292 0.00208208 0)
(1.00303 0.0022264 0)
(1.00311 0.00231753 0)
(1.00005 -5.44522e-05 0)