/*--------------------------------*- C++ -*----------------------------------*\
| =========                 |                                                 |
| \\      /  F ield         | OpenFOAM: The Open Source CFD Toolbox           |
|  \\    /   O peration     | Version:  3.0.1                                 |
|   \\  /    A nd           | Web:      www.OpenFOAM.org                      |
|    \\/     M anipulation  |                                                 |
\*---------------------------------------------------------------------------*/
FoamFile
{
    version     2.0;
    format      ascii;
    class       volScalarField;
    location    "4.3";
    object      p;
}
// * * * * * * * * * * * * * * * * * * * * * * * * * * * * * * * * * * * * * //

dimensions      [0 2 -2 0 0 0 0];

internalField   nonuniform List<scalar> 
9600
(
-2.59862e-10
0.000152617
-0.0025524
0.00164024
0.00334478
-0.00122837
0.000631808
0.00592165
0.00430594
0.00794089
0.00641664
0.00745351
0.00865068
0.00815593
0.00857191
0.0107566
0.0116806
0.0132828
0.0136143
0.0178924
-3.17109e-06
0.000145804
-0.00253927
0.00165543
0.00330141
-0.00124877
0.000640263
0.00592798
0.00431279
0.00786226
0.00641825
0.00746215
0.00864386
0.00814644
0.00857156
0.0106939
0.0116919
0.0131831
0.0136915
0.0175156
-5.86915e-06
0.000138365
-0.00252824
0.00166155
0.00323007
-0.00125296
0.000653551
0.00592974
0.00431946
0.00776946
0.0064245
0.00746871
0.00863109
0.00813957
0.00856938
0.0106656
0.0117053
0.0131003
0.0137221
0.0170889
-7.94988e-06
0.000130548
-0.00251612
0.00165972
0.00315367
-0.00122729
0.000674873
0.00592679
0.00433452
0.00766342
0.00643248
0.00747258
0.00861686
0.00813864
0.0085657
0.0106401
0.0117156
0.0130115
0.0137204
0.0166858
-1.05233e-05
0.000123708
-0.00249702
0.00164839
0.00307626
-0.00116635
0.000708844
0.00591941
0.00436274
0.00754495
0.0064422
0.00747465
0.00860191
0.00813992
0.00856177
0.0106135
0.011724
0.0129189
0.0136918
0.0163012
-1.37411e-05
0.00011988
-0.00246588
0.00162306
0.0030016
-0.00106943
0.000757389
0.00590923
0.00440499
0.00741898
0.00645403
0.00747433
0.00858678
0.00814134
0.00855908
0.0105857
0.0117301
0.0128237
0.0136385
0.0159329
-1.77007e-05
0.00012045
-0.00242031
0.00158392
0.00293761
-0.000942412
0.000819504
0.00589751
0.00445897
0.00729097
0.00646732
0.00747217
0.00857235
0.00814195
0.00855788
0.010557
0.0117329
0.0127269
0.0135617
0.0155797
-2.22675e-05
0.000126151
-0.00235988
0.00153651
0.00288962
-0.000795594
0.000891639
0.00588451
0.00452158
0.00716701
0.00648141
0.00746923
0.0085585
0.00814088
0.00855743
0.0105272
0.0117298
0.0126279
0.0134624
0.0152393
-2.70183e-05
0.00013729
-0.00228517
0.00148749
0.00285703
-0.000639985
0.000968986
0.0058699
0.00459033
0.00704684
0.00649585
0.00746591
0.00854476
0.00813752
0.00855639
0.0104963
0.0117194
0.0125309
0.0133415
0.0149086
-3.14801e-05
0.000153924
-0.00219728
0.00144227
0.00283547
-0.000484672
0.00104682
0.00585333
0.00466346
0.00693032
0.00651018
0.00746254
0.00853127
0.00813161
0.00855338
0.0104648
0.0117005
0.0124331
0.0132008
0.0145848
-3.5333e-05
0.000175987
-0.00209777
0.00140431
0.00282051
-0.000335615
0.00112128
0.00583461
0.00473953
0.00681683
0.00652416
0.00745999
0.00851858
0.00812322
0.00854716
0.0104324
0.0116719
0.0123334
0.0130431
0.0142655
-3.84006e-05
0.000203295
-0.00198889
0.00137526
0.00280922
-0.000195839
0.00119021
0.00581379
0.00481706
0.00670585
0.00653779
0.00745937
0.00850716
0.00811289
0.0085366
0.0103991
0.0116333
0.0122306
0.0128713
0.013948
-4.05891e-05
0.000235337
-0.00187309
0.00135515
0.00279974
-6.6122e-05
0.00125344
0.00579117
0.00489464
0.00659709
0.00655096
0.0074615
0.0084971
0.00810141
0.00852087
0.0103646
0.0115853
0.0121228
0.0126879
0.0136308
-4.18136e-05
0.000271301
-0.00175247
0.00134278
0.00279073
5.44098e-05
0.00131223
0.00576723
0.00497116
0.00649038
0.0065633
0.00746668
0.00848796
0.00808953
0.00849958
0.010329
0.0115291
0.0120077
0.0124956
0.0133142
-4.19499e-05
0.0003102
-0.00162851
0.00133651
0.00278127
0.000167424
0.00136843
0.00574246
0.0050459
0.00638574
0.00657426
0.00747481
0.00847876
0.00807776
0.00847276
0.0102916
0.0114658
0.0118832
0.0122967
0.0129997
-4.08443e-05
0.000351173
-0.00150212
0.00133489
0.00277101
0.000274585
0.00142383
0.00571727
0.00511838
0.00628339
0.00658325
0.00748555
0.00846841
0.00806634
0.00844076
0.0102514
0.0113971
0.0117487
0.0120926
0.0126888
-3.83205e-05
0.0003936
-0.00137376
0.00133687
0.00276001
0.000377174
0.00147981
0.00569203
0.00518826
0.00618377
0.00658974
0.00749853
0.00845594
0.0080552
0.00840431
0.0102073
0.011324
0.0116036
0.0118833
0.0123832
-3.419e-05
0.000437033
-0.00124366
0.00134188
0.00274861
0.000476046
0.00153725
0.00566716
0.00525524
0.00608736
0.00659322
0.00751343
0.00844073
0.00804395
0.00836428
0.0101581
0.0112475
0.0114484
0.011668
0.0120845
-2.82533e-05
0.000481104
-0.00111188
0.00134966
0.00273718
0.000571741
0.00159669
0.00564304
0.00531904
0.00599466
0.0065931
0.00752998
0.00842261
0.0080319
0.00832143
0.0101027
0.0111678
0.0112846
0.0114454
0.0117935
-2.02979e-05
0.0005255
-0.000978408
0.00136014
0.002726
0.000664647
0.00165837
0.00562004
0.00537943
0.00590604
0.00658945
0.00754802
0.00840171
0.00801827
0.0082762
0.0100401
0.0110851
0.0111144
0.0112145
0.0115104
-1.01016e-05
0.000569963
-0.00084329
0.00137331
0.0027153
0.000755094
0.00172237
0.00559847
0.00543618
0.00582176
0.00658212
0.00756717
0.00837828
0.00800235
0.00822886
0.0099696
0.0109988
0.0109403
0.0109754
0.0112347
2.56835e-06
0.00061431
-0.000706627
0.00138923
0.00270528
0.000843341
0.00178855
0.00557862
0.00548911
0.00574201
0.00657104
0.00758682
0.00835249
0.00798353
0.00817971
0.00989083
0.0109081
0.0107638
0.0107286
0.010966
1.79519e-05
0.000658416
-0.000568568
0.00140805
0.00269608
0.000929571
0.00185669
0.00556072
0.00553824
0.00566679
0.00655626
0.00760641
0.00832443
0.00796124
0.008129
0.00980377
0.0108123
0.0105862
0.0104743
0.0107035
3.62886e-05
0.000702186
-0.000429315
0.00142994
0.00268775
0.00101394
0.00192643
0.00554493
0.00558376
0.00559597
0.00653791
0.00762576
0.00829418
0.00793476
0.0080769
0.00970846
0.0107106
0.0104096
0.0102124
0.0104443
5.78107e-05
0.000745576
-0.000289144
0.00145514
0.00268034
0.00109664
0.00199732
0.00553119
0.00562592
0.00552937
0.00651593
0.00764474
0.00826209
0.00790321
0.00802322
0.00960531
0.0106025
0.0102365
0.00994411
0.0101821
8.27296e-05
0.000788603
-0.000148395
0.0014839
0.0026739
0.00117793
0.002069
0.00551921
0.00566514
0.00546702
0.00649003
0.007663
0.0082288
0.00786593
0.00796734
0.00949469
0.0104871
0.0100691
0.00967375
0.00990932
0.000111239
0.000831344
-7.45637e-06
0.00151644
0.0026685
0.00125803
0.00214134
0.0055086
0.00570177
0.00540909
0.00645981
0.00768014
0.00819497
0.00782262
0.00790899
0.00937704
0.0103623
0.00990827
0.00940884
0.0096226
0.000143534
0.000873958
0.000133244
0.00155293
0.00266422
0.00133715
0.0022143
0.00549905
0.00573589
0.00535561
0.00642504
0.0076956
0.00816118
0.00777303
0.00784817
0.00925395
0.0102261
0.00975135
0.00915642
0.00932699
0.000179776
0.00091667
0.00027327
0.0015935
0.00266125
0.0014153
0.00228778
0.0054904
0.00576767
0.00530667
0.00638551
0.00770856
0.00812789
0.00771696
0.00778419
0.00912786
0.010079
0.00959323
0.00891865
0.00903374
0.000220079
0.000959769
0.000412247
0.00163823
0.00265982
0.00149243
0.00236176
0.0054825
0.0057972
0.00526245
0.00634109
0.00771801
0.00809525
0.00765473
0.0077157
0.00899996
0.00992446
0.00943132
0.00869116
0.00875048
0.000264518
0.00100361
0.000549844
0.00168714
0.00266017
0.00156851
0.00243636
0.00547539
0.00582441
0.00522297
0.00629204
0.00772251
0.00806301
0.00758676
0.00764202
0.00886993
0.00976456
0.00926739
0.00846955
0.00847657
0.000313111
0.00104855
0.000685798
0.00174018
0.0026628
0.00164344
0.00251117
0.00546912
0.00584942
0.00518804
0.00623862
0.00772135
0.00803094
0.00751292
0.00756308
0.0087386
0.00959924
0.00910331
0.00825523
0.00820811
0.000365836
0.001095
0.000819974
0.00179723
0.0026682
0.00171697
0.00258551
0.00546376
0.00587239
0.00515753
0.00618098
0.00771405
0.00799911
0.00743278
0.00747794
0.00860852
0.00942913
0.0089371
0.00805263
0.00794557
0.000422709
0.00114333
0.000952289
0.0018579
0.0026769
0.00178923
0.00265883
0.0054595
0.00589374
0.00513124
0.00611891
0.0076998
0.00796782
0.00734644
0.00738418
0.00848162
0.00925853
0.00876504
0.00786178
0.00769553
0.000483743
0.00119386
0.00108288
0.00192162
0.00268958
0.0018608
0.00273013
0.00545644
0.00591417
0.00510864
0.00605179
0.00767759
0.00793807
0.00725471
0.00727865
0.008357
0.00909391
0.00858632
0.00767678
0.00746444
0.00054893
0.00124679
0.00121222
0.00198799
0.00270634
0.00193216
0.00279847
0.0054542
0.00593448
0.00508978
0.00597894
0.00764643
0.00791102
0.00715989
0.00715909
0.00823081
0.00893997
0.00840578
0.00749023
0.00725293
0.00061836
0.00130214
0.00134071
0.00205683
0.00272705
0.00200437
0.00286313
0.00545155
0.0059554
0.00507545
0.00589999
0.00760429
0.00788707
0.00706593
0.00702496
0.00809811
0.00879787
0.00823149
0.00729786
0.00705491
0.000692182
0.00135958
0.00146887
0.00212822
0.00275138
0.00207856
0.00292359
0.00544681
0.00597762
0.00506698
0.00581485
0.00754806
0.0078658
0.00697727
0.00687731
0.00795403
0.0086659
0.00807102
0.00710049
0.00686097
0.00077058
0.00141871
0.00159731
0.00220272
0.00277845
0.00215551
0.0029799
0.00543805
0.00600129
0.00506588
0.00572403
0.00747568
0.00784562
0.00689841
0.00671877
0.00779386
0.00854073
0.00793076
0.00690365
0.00666115
0.00085379
0.00147901
0.00172641
0.00228109
0.00280729
0.00223631
0.00303312
0.005423
0.00602503
0.00507364
0.00562942
0.00738543
0.00782321
0.0068338
0.00655415
0.00761319
0.00841679
0.00781613
0.00671734
0.00644828
0.000942279
0.00153972
0.00185602
0.00236468
0.00283643
0.00232187
0.00308531
0.00540011
0.00604672
0.00509168
0.00553433
0.0072743
0.00779332
0.00678667
0.0063905
0.00740948
0.00828535
0.00772871
0.00655534
0.00622245
0.00103661
0.00160033
0.00198541
0.00245537
0.00286466
0.00241135
0.0031383
0.00536821
0.00606426
0.00512018
0.00544255
0.00714422
0.00775045
0.00675698
0.0062366
0.00718453
0.00813668
0.00766362
0.00643086
0.00599371
0.0011371
0.00166086
0.00211338
0.00255489
0.00288881
0.00250213
0.00319418
0.00532715
0.00607422
0.00515827
0.00535775
0.00699067
0.00768953
0.00674072
0.00609981
0.00694402
0.00796326
0.00761029
0.00635126
0.0057808
0.00124413
0.0017216
0.00223788
0.00266463
0.00291797
0.00259266
0.00325535
0.00527852
0.00607215
0.00520388
0.00528347
0.00682467
0.00760825
0.00673311
0.00598408
0.00669499
0.00776138
0.00755681
0.00631602
0.0056046
0.001358
0.0017833
0.00235607
0.00278529
0.00295079
0.00267473
0.00332244
0.00522797
0.00605567
0.00525324
0.00522264
0.00665168
0.00750616
0.00672856
0.00589146
0.00644541
0.00753023
0.00749206
0.00631714
0.00548036
0.0014788
0.00184697
0.00246542
0.00291615
0.00299016
0.00274649
0.00339482
0.00518237
0.00602472
0.00530007
0.0051762
0.00647762
0.00738416
0.00672137
0.00582256
0.0062044
0.0072715
0.00740487
0.00634137
0.00541374
0.00160651
0.00191408
0.00256383
0.00305494
0.00304093
0.00280641
0.00346907
0.00514662
0.0059816
0.0053381
0.00514258
0.00630861
0.00724503
0.00670725
0.00577557
0.00598121
0.00699139
0.0072856
0.00637311
0.00540002
0.00174074
0.00198641
0.00264997
0.00319843
0.00310844
0.0028545
0.0035372
0.00512318
0.00593303
0.00536485
0.00511839
0.00614738
0.00709291
0.00668292
0.00574677
0.00578262
0.00670027
0.00712991
0.00639729
0.00542678
0.00188066
0.00206568
0.00272375
0.00334224
0.00319681
0.00289272
0.00359046
0.00511056
0.00588811
0.00538169
0.00509903
0.00599429
0.00693163
0.00664756
0.00573314
0.00561249
0.00640847
0.00693932
0.00640164
0.00547823
0.00202534
0.00215369
0.00278603
0.00348084
0.00330742
0.00292714
0.00362251
0.0051034
0.00585435
0.00539268
0.00508101
0.0058488
0.00676225
0.00660025
0.00573277
0.00547401
0.00612526
0.00671815
0.00637829
0.00554079
0.0021739
0.00225243
0.00283907
0.00360742
0.00343905
0.0029673
0.00363067
0.0050923
0.00583471
0.00540571
0.00506398
0.00571039
0.00658754
0.00653792
0.00574124
0.00536998
0.00586134
0.00647208
0.00632149
0.00560437
0.00232457
0.00236329
0.00288704
0.00371509
0.00358813
0.00302482
0.00361615
0.00506499
0.00582748
0.00542942
0.00505037
0.00557852
0.0064092
0.0064591
0.00575076
0.00529998
0.00562859
0.00621177
0.00622612
0.00565914
0.00247604
0.00248645
0.00293503
0.00379943
0.00374728
0.00311016
0.00358478
0.00501058
0.00582615
0.00546951
0.00504622
0.00545425
0.00622807
0.00636358
0.00575498
0.00525736
0.00543562
0.00595433
0.00609266
0.00569271
0.00262706
0.00262167
0.00298802
0.0038584
0.00390467
0.00322876
0.00355151
0.00492472
0.00581628
0.00552639
0.00505916
0.00534173
0.00604434
0.00625095
0.00574999
0.00523313
0.00528181
0.0057151
0.00593139
0.00569348
0.00277643
0.00276801
0.00305032
0.00389282
0.004047
0.00337855
0.00353718
0.00481143
0.00578121
0.00559397
0.0050942
0.00524755
0.00586269
0.00611966
0.00573207
0.00522199
0.00516107
0.00550189
0.00575852
0.00565889
0.00292358
0.00292258
0.00312527
0.00390728
0.00416578
0.00355281
0.00355592
0.00468385
0.00571084
0.0056586
0.00515257
0.00517739
0.00567734
0.00597199
0.00569494
0.00521901
0.00507053
0.00531543
0.00558625
0.00559641
0.00306805
0.00308236
0.00321502
0.00390931
0.00425676
0.00373672
0.00361217
0.00456143
0.00560431
0.00570255
0.00523004
0.00513722
0.00552516
0.00581923
0.00563485
0.00521537
0.00500882
0.0051575
0.00542017
0.00551651
0.00320951
0.00324322
0.00332049
0.00390887
0.00431866
0.00391487
0.0037042
0.00446234
0.00547033
0.00571209
0.00531534
0.00512952
0.0053976
0.00566726
0.00555607
0.00520097
0.00496905
0.00503091
0.00526352
0.00542671
0.00334811
0.00339965
0.00344049
0.00391627
0.00435365
0.00407593
0.00382406
0.00439625
0.00532552
0.00568309
0.00539236
0.00515129
0.00529948
0.00552377
0.0054672
0.00517243
0.00493905
0.00493508
0.00512147
0.00533013
0.00348441
0.00355024
0.00357122
0.00393721
0.00436859
0.00421238
0.00395976
0.00436612
0.00518734
0.00561977
0.00544723
0.00519241
0.00523496
0.00539608
0.00537291
0.00513413
0.00491061
0.00486485
0.00500099
0.00522895
0.00361902
0.00369441
0.00370669
0.003974
0.00437321
0.00432152
0.00409857
0.00437058
0.00506847
0.00553349
0.00547394
0.00523917
0.00520184
0.00529292
0.00527905
0.00509017
0.00488261
0.00481246
0.00490653
0.00512994
0.00375217
0.00383187
0.00384188
0.00402653
0.00437626
0.00440434
0.00423014
0.00440367
0.00497597
0.0054379
0.00547306
0.00528122
0.0051913
0.00521851
0.0051949
0.00504247
0.00485561
0.00477104
0.00483652
0.00504429
0.00388366
0.00396284
0.0039733
0.00409284
0.0043833
0.00446458
0.00434808
0.00445664
0.00491245
0.0053452
0.00544976
0.00531207
0.005195
0.00517144
0.0051293
0.00499656
0.00483032
0.00473682
0.00478329
0.0049781
0.00401283
0.00408808
0.00409883
0.00416913
0.0043981
0.00450831
0.00444897
0.00452041
0.00487691
0.00526461
0.00541268
0.00532991
0.00520747
0.00514704
0.00508362
0.00495992
0.00480914
0.00471131
0.00474104
0.00492824
0.00413879
0.00420778
0.0042178
0.00425133
0.00442215
0.00454154
0.00453223
0.0045881
0.00486479
0.00520078
0.00537199
0.00533779
0.00522993
0.00514193
0.00505597
0.00493559
0.00479604
0.004697
0.00471152
0.00489073
0.00426074
0.00432212
0.00432959
0.00433604
0.004455
0.00456916
0.00459892
0.00465441
0.00487156
0.00515577
0.00533459
0.00533987
0.00525978
0.00515391
0.00504795
0.00492392
0.00479314
0.00469538
0.00469743
0.00486544
0.004378
0.00443082
0.00443365
0.00442036
0.0044955
0.00459465
0.00465136
0.00471531
0.00489203
0.00513009
0.00530504
0.00533908
0.00527595
0.00517434
0.00506011
0.00492811
0.00480079
0.00470641
0.00469966
0.00485476
0.00448954
0.00453423
0.00453012
0.00450166
0.00454112
0.00462002
0.00469289
0.00476907
0.00492024
0.00512147
0.00528741
0.00534188
0.00529892
0.00520399
0.0050903
0.00495371
0.00482276
0.00473067
0.00471826
0.00486056
0.00459407
0.00463098
0.00461903
0.00457868
0.00458979
0.00464636
0.00472592
0.00481442
0.0049523
0.00512716
0.00528381
0.00535223
0.00533131
0.00524809
0.00513823
0.00500428
0.00486706
0.00477197
0.00475544
0.00488597
0.00469069
0.00472018
0.00470019
0.004649
0.00463864
0.00467442
0.00475324
0.00485064
0.00498342
0.00514318
0.00529433
0.00537405
0.00537789
0.00531234
0.00520904
0.00508217
0.00494239
0.00483793
0.00481471
0.00493309
0.00477882
0.00480371
0.00477357
0.00471089
0.00468302
0.00470153
0.00477687
0.00487911
0.00500933
0.00516341
0.0053173
0.00540825
0.00544502
0.00540851
0.00531883
0.00519784
0.00505715
0.0049347
0.00489261
0.00499544
0.00485608
0.00487679
0.00483927
0.00476758
0.00472375
0.00472452
0.00479383
0.00490059
0.00502848
0.00517654
0.00534993
0.00547465
0.00554725
0.0055699
0.00552678
0.0054343
0.00530238
0.00515062
0.00505622
0.00509026
0.00492054
0.00493828
0.00489705
0.00481664
0.00475965
0.00474507
0.00480244
0.00491017
0.0050406
0.00516374
0.00530422
0.00542212
0.00551741
0.00558654
0.00561343
0.00561141
0.00559585
0.00553823
0.00547908
0.00552544
0.00497514
0.00499252
0.00494165
0.00484839
0.00478524
0.00476796
0.00481635
0.00490836
0.00505328
0.00527761
0.0055172
0.00574275
0.00593041
0.00605592
0.00607759
0.00597924
0.00584075
0.00574178
0.00564787
0.00560085
0.00501627
0.0050339
0.00497402
0.00486445
0.00478791
0.00475984
0.0048026
0.00488164
0.00490955
0.00492619
0.00502082
0.00527588
0.00567654
0.00613335
0.00654781
0.00685887
0.00704866
0.00716571
0.0073336
0.00748613
0.00503457
0.00505329
0.00501369
0.00492914
0.00485863
0.00480089
0.00478606
0.00481346
0.00498269
0.00532284
0.00572624
0.00600395
0.00621892
0.00634991
0.00641616
0.00648302
0.00661351
0.00682309
0.00702296
0.00714782
0.00503001
0.0050367
0.00496162
0.004849
0.00480078
0.00479179
0.00488767
0.00509206
0.00532683
0.00552275
0.00565515
0.00575232
0.00591575
0.00615947
0.00647767
0.00686669
0.00723771
0.00755941
0.00780842
0.00795428
0.00499455
0.00506187
0.00508682
0.00509139
0.00509768
0.00511317
0.00517742
0.00527398
0.00541316
0.0055889
0.00580682
0.00600404
0.00615654
0.00626056
0.00627241
0.00621416
0.0061062
0.00596792
0.00578685
0.00561393
0.00486458
0.00491609
0.00503266
0.00508575
0.00514011
0.00519325
0.00523606
0.00530716
0.00542428
0.00554725
0.0057105
0.00588948
0.00606382
0.00630354
0.00659065
0.00688782
0.0071933
0.00747533
0.00771911
0.00783264
0.00483755
0.00493142
0.0051318
0.0052972
0.00541488
0.00544685
0.00547084
0.00550274
0.00559221
0.0056986
0.0058311
0.00599808
0.00613522
0.00625218
0.0063626
0.00647622
0.0066208
0.00678704
0.00693182
0.00697099
0.0207892
0.0149199
0.00735166
0.00198904
0.000673083
0.0017307
0.00304443
0.00387267
0.0043217
0.00470982
0.00511832
0.005399
0.00555286
0.00576191
0.00605207
0.00629198
0.00643678
0.0065978
0.00688298
0.00723577
0.00751608
0.00767863
0.00779793
0.0079991
0.00831751
0.00862932
0.00884038
0.00903718
0.00929435
0.00954011
0.00974461
0.0100052
0.0103606
0.0107357
0.0110835
0.0114339
0.0117921
0.0121241
0.0124212
0.0126993
0.0129701
0.0132427
0.0135193
0.0138082
0.0141354
0.0145023
0.0148662
0.0152085
0.015566
0.0159657
0.0163529
0.0167079
0.0170917
0.0175024
0.0178739
0.0182328
0.0186192
0.0190291
0.0194579
0.0199017
0.0203693
0.0208582
0.0213294
0.0217685
0.0222231
0.0226908
0.023181
0.0236844
0.0241974
0.0247107
0.0252481
0.0257866
0.0263309
0.0268892
0.0274664
0.0280597
0.0286634
0.0292899
0.029923
0.030582
0.0312428
0.0319273
0.0326109
0.033324
0.0340513
0.0347924
0.0355354
0.036277
0.0370391
0.0378217
0.038611
0.0394304
0.0402247
0.0410629
0.0418726
0.0426917
0.043496
0.0442253
0.0448443
0.0453455
0.0200795
0.0147796
0.00743946
0.00213666
0.000761212
0.00177348
0.00307211
0.00389173
0.00433467
0.0047194
0.00512649
0.00540627
0.00555902
0.00576725
0.00605704
0.00629659
0.00644078
0.0066011
0.00688585
0.00723851
0.00751873
0.00768102
0.00779993
0.00800072
0.00831902
0.00863087
0.00884183
0.00903842
0.00929553
0.00954128
0.00974564
0.0100061
0.0103614
0.0107366
0.0110844
0.0114347
0.0117929
0.0121249
0.0124219
0.0127
0.0129709
0.0132434
0.01352
0.0138088
0.014136
0.0145028
0.0148668
0.0152091
0.0155665
0.0159661
0.0163534
0.0167083
0.0170921
0.0175028
0.0178743
0.0182331
0.0186196
0.0190294
0.0194582
0.019902
0.0203696
0.0208585
0.0213297
0.0217688
0.0222234
0.022691
0.0231813
0.0236847
0.0241976
0.0247109
0.0252483
0.0257868
0.026331
0.0268894
0.0274666
0.0280598
0.0286636
0.0292901
0.0299231
0.0305821
0.0312429
0.0319275
0.032611
0.0333241
0.0340514
0.0347925
0.0355355
0.0362772
0.0370392
0.0378218
0.0386111
0.0394305
0.0402248
0.0410629
0.0418727
0.0426918
0.0434961
0.0442253
0.0448443
0.0453454
0.0194063
0.0146273
0.00760775
0.00240495
0.000911264
0.00182563
0.00309742
0.00391324
0.00435292
0.00473322
0.0051367
0.00541424
0.0055655
0.00577273
0.0060619
0.006301
0.00644473
0.00660453
0.00688887
0.00724129
0.00752129
0.0076833
0.00780185
0.00800233
0.00832052
0.00863236
0.00884313
0.00903953
0.00929663
0.00954234
0.00974649
0.0100068
0.0103622
0.0107374
0.0110851
0.0114354
0.0117936
0.0121256
0.0124226
0.0127006
0.0129715
0.013244
0.0135206
0.0138094
0.0141365
0.0145034
0.0148673
0.0152096
0.0155669
0.0159666
0.0163539
0.0167087
0.0170924
0.0175032
0.0178747
0.0182335
0.0186199
0.0190297
0.0194585
0.0199022
0.0203699
0.0208587
0.0213299
0.021769
0.0222236
0.0226912
0.0231815
0.0236848
0.0241978
0.024711
0.0252485
0.0257869
0.0263312
0.0268895
0.0274667
0.02806
0.0286637
0.0292902
0.0299233
0.0305823
0.0312431
0.0319276
0.0326111
0.0333242
0.0340515
0.0347926
0.0355356
0.0362773
0.0370393
0.0378219
0.0386112
0.0394306
0.0402249
0.041063
0.0418728
0.0426919
0.0434962
0.0442254
0.0448443
0.0453453
0.0187656
0.0144733
0.00782521
0.00274749
0.00111847
0.00189851
0.0031326
0.00394512
0.00438151
0.00475475
0.00515131
0.00542497
0.00557465
0.00578047
0.0060679
0.00630597
0.00644969
0.00660953
0.00689326
0.00724479
0.00752425
0.00768618
0.00780464
0.00800474
0.00832255
0.00863414
0.00884471
0.00904095
0.00929797
0.00954351
0.00974738
0.0100075
0.010363
0.0107383
0.011086
0.0114361
0.0117943
0.0121263
0.0124233
0.0127013
0.0129721
0.0132446
0.0135211
0.0138099
0.014137
0.0145039
0.0148678
0.0152101
0.0155674
0.015967
0.0163543
0.0167091
0.0170928
0.0175036
0.0178751
0.0182338
0.0186202
0.01903
0.0194587
0.0199025
0.0203701
0.020859
0.0213302
0.0217692
0.0222238
0.0226914
0.0231816
0.023685
0.024198
0.0247112
0.0252486
0.0257871
0.0263313
0.0268897
0.0274669
0.0280601
0.0286639
0.0292903
0.0299234
0.0305824
0.0312432
0.0319277
0.0326113
0.0333243
0.0340516
0.0347927
0.0355357
0.0362773
0.0370394
0.037822
0.0386113
0.0394307
0.0402249
0.0410631
0.0418729
0.042692
0.0434963
0.0442255
0.0448445
0.0453452
0.018138
0.0143071
0.00805548
0.00311372
0.00135045
0.00198259
0.0031729
0.00398439
0.00441952
0.0047844
0.00517119
0.00543951
0.00558792
0.00579207
0.0060762
0.0063121
0.00645622
0.00661692
0.0068998
0.00724935
0.00752769
0.00769001
0.00780907
0.0080088
0.00832558
0.00863653
0.008847
0.00904318
0.00929989
0.00954499
0.00974848
0.0100085
0.010364
0.0107393
0.0110869
0.011437
0.0117951
0.0121271
0.0124241
0.012702
0.0129727
0.0132451
0.0135217
0.0138104
0.0141375
0.0145044
0.0148684
0.0152106
0.0155679
0.0159675
0.0163548
0.0167095
0.0170932
0.017504
0.0178755
0.0182341
0.0186205
0.0190303
0.0194591
0.0199028
0.0203704
0.0208593
0.0213305
0.0217695
0.022224
0.0226916
0.0231819
0.0236853
0.0241982
0.0247114
0.0252488
0.0257873
0.0263315
0.0268898
0.027467
0.0280603
0.028664
0.0292905
0.0299235
0.0305825
0.0312433
0.0319278
0.0326114
0.0333244
0.0340518
0.0347929
0.0355358
0.0362775
0.0370395
0.0378221
0.0386114
0.0394308
0.040225
0.0410632
0.041873
0.0426921
0.0434964
0.0442257
0.0448447
0.0453451
0.0175238
0.0141211
0.00827764
0.00348385
0.0015954
0.00207267
0.00321362
0.00402603
0.00446237
0.00481875
0.00519432
0.00545687
0.00560487
0.00580759
0.00608723
0.00631988
0.00646463
0.00662691
0.00690865
0.00725498
0.00753148
0.00769476
0.00781548
0.00801494
0.00832987
0.00863965
0.00885032
0.00904671
0.00930282
0.00954708
0.00975005
0.0100098
0.0103651
0.0107404
0.0110881
0.011438
0.011796
0.012128
0.0124251
0.0127029
0.0129734
0.0132457
0.0135222
0.0138111
0.0141381
0.014505
0.0148689
0.0152113
0.0155685
0.0159681
0.0163554
0.0167101
0.0170937
0.0175045
0.017876
0.0182345
0.0186209
0.0190307
0.0194594
0.0199031
0.0203708
0.0208597
0.0213309
0.0217698
0.0222243
0.0226919
0.0231821
0.0236855
0.0241984
0.0247116
0.025249
0.0257875
0.0263317
0.02689
0.0274672
0.0280604
0.0286642
0.0292906
0.0299237
0.0305827
0.0312435
0.031928
0.0326115
0.0333245
0.0340519
0.034793
0.0355359
0.0362776
0.0370396
0.0378222
0.0386115
0.0394309
0.0402251
0.0410633
0.0418731
0.0426922
0.0434966
0.0442259
0.0448452
0.045345
0.0169282
0.0139131
0.00848343
0.00385348
0.00185305
0.00216975
0.0032544
0.00406839
0.00450803
0.00485594
0.00521935
0.00547588
0.00562413
0.00582583
0.00610055
0.00632938
0.00647488
0.00663913
0.00691935
0.0072614
0.00753543
0.00770025
0.00782371
0.00802312
0.00833536
0.00864344
0.0088547
0.00905174
0.00930706
0.00955012
0.00975243
0.0100117
0.0103665
0.0107417
0.0110893
0.0114391
0.0117969
0.0121289
0.0124262
0.0127041
0.0129743
0.0132463
0.0135229
0.0138118
0.0141388
0.0145056
0.0148695
0.015212
0.0155693
0.0159688
0.016356
0.0167107
0.0170944
0.0175051
0.0178765
0.018235
0.0186213
0.0190311
0.0194598
0.0199035
0.0203711
0.0208601
0.0213314
0.0217702
0.0222246
0.0226922
0.0231824
0.0236858
0.0241987
0.0247119
0.0252493
0.0257877
0.0263319
0.0268902
0.0274674
0.0280606
0.0286643
0.0292908
0.0299238
0.0305828
0.0312436
0.0319281
0.0326117
0.0333247
0.034052
0.0347931
0.0355361
0.0362777
0.0370397
0.0378223
0.0386116
0.039431
0.0402252
0.0410634
0.0418732
0.0426923
0.0434968
0.0442263
0.0448457
0.0453449
0.0163551
0.0136843
0.00866976
0.00422134
0.00212482
0.00227637
0.00329601
0.00411093
0.00455595
0.00489576
0.00524623
0.00549618
0.00564477
0.00584574
0.00611548
0.0063403
0.00648662
0.00665296
0.00693134
0.00726837
0.00753948
0.00770621
0.00783324
0.00803288
0.00834184
0.00864771
0.00885988
0.00905803
0.00931254
0.00955427
0.00975591
0.0100145
0.0103685
0.0107431
0.0110906
0.0114401
0.0117975
0.0121297
0.0124275
0.0127056
0.0129755
0.0132472
0.0135237
0.0138128
0.0141397
0.0145061
0.0148701
0.0152128
0.0155702
0.0159694
0.0163566
0.0167115
0.0170952
0.0175058
0.0178771
0.0182356
0.0186218
0.0190315
0.0194602
0.019904
0.0203716
0.0208606
0.0213319
0.0217707
0.022225
0.0226926
0.0231828
0.0236862
0.024199
0.0247122
0.0252496
0.025788
0.0263322
0.0268904
0.0274676
0.0280608
0.0286645
0.029291
0.029924
0.030583
0.0312438
0.0319283
0.0326118
0.0333248
0.0340522
0.0347933
0.0355362
0.0362778
0.0370398
0.0378225
0.0386117
0.0394311
0.0402254
0.0410635
0.0418734
0.0426925
0.0434971
0.0442268
0.0448465
0.0453448
0.0158085
0.0134392
0.0088347
0.00458497
0.00241076
0.00239461
0.00333932
0.00415318
0.00460576
0.00493829
0.00527508
0.00551764
0.00566639
0.0058668
0.00613161
0.00635228
0.00649941
0.00666789
0.00694428
0.00727588
0.00754374
0.00771248
0.00784356
0.00804366
0.00834902
0.00865235
0.00886553
0.00906507
0.00931888
0.00955939
0.0097605
0.0100183
0.0103711
0.010745
0.0110922
0.0114412
0.0117979
0.0121301
0.0124286
0.0127073
0.012977
0.0132483
0.0135249
0.0138142
0.0141409
0.0145067
0.0148706
0.0152137
0.0155711
0.01597
0.0163572
0.0167124
0.0170962
0.0175066
0.0178778
0.0182363
0.0186225
0.019032
0.0194606
0.0199044
0.020372
0.0208611
0.0213325
0.0217712
0.0222255
0.022693
0.0231833
0.0236866
0.0241995
0.0247126
0.0252499
0.0257884
0.0263325
0.0268907
0.0274679
0.0280611
0.0286647
0.0292912
0.0299242
0.0305832
0.031244
0.0319285
0.032612
0.033325
0.0340524
0.0347934
0.0355364
0.036278
0.03704
0.0378226
0.0386119
0.0394313
0.0402255
0.0410637
0.0418736
0.0426927
0.0434974
0.0442274
0.0448476
0.0453448
0.0152912
0.0131823
0.00897601
0.00494089
0.00270974
0.00252595
0.00338495
0.00419431
0.00465663
0.00498329
0.00530593
0.00554028
0.00568894
0.00588891
0.00614874
0.00636509
0.00651295
0.00668367
0.00695805
0.007284
0.00754835
0.00771904
0.00785435
0.00805511
0.00835677
0.00865732
0.00887146
0.00907248
0.00932566
0.00956512
0.00976598
0.0100231
0.0103743
0.0107472
0.0110941
0.0114423
0.011798
0.01213
0.0124294
0.0127089
0.0129787
0.0132498
0.0135265
0.0138161
0.0141424
0.0145075
0.0148712
0.0152147
0.0155721
0.0159706
0.0163577
0.0167133
0.0170972
0.0175074
0.0178786
0.0182373
0.0186233
0.0190326
0.0194611
0.0199049
0.0203724
0.0208616
0.0213331
0.0217718
0.022226
0.0226936
0.0231838
0.0236872
0.0242
0.0247131
0.0252504
0.0257888
0.0263329
0.0268911
0.0274682
0.0280614
0.028665
0.0292914
0.0299244
0.0305834
0.0312442
0.0319286
0.0326122
0.0333251
0.0340526
0.0347936
0.0355366
0.0362781
0.0370402
0.0378228
0.038612
0.0394315
0.0402257
0.0410639
0.0418739
0.0426929
0.0434979
0.0442283
0.044849
0.0453449
0.0148039
0.0129176
0.0090926
0.00528575
0.00301936
0.00267094
0.00343329
0.00423352
0.00470767
0.00503055
0.00533895
0.00556436
0.00571258
0.00591207
0.00616679
0.00637857
0.00652713
0.00670025
0.00697269
0.0072928
0.00755335
0.00772588
0.00786554
0.00806708
0.008365
0.0086626
0.00887765
0.00908015
0.00933266
0.00957114
0.00977201
0.0100285
0.0103782
0.0107499
0.0110962
0.0114436
0.011798
0.0121296
0.0124297
0.0127102
0.0129804
0.0132515
0.0135285
0.0138184
0.0141444
0.0145086
0.0148719
0.0152158
0.0155733
0.0159711
0.0163581
0.0167142
0.0170982
0.0175081
0.0178794
0.0182384
0.0186244
0.0190335
0.0194618
0.0199054
0.0203728
0.0208619
0.0213337
0.0217725
0.0222266
0.0226942
0.0231844
0.0236878
0.0242006
0.0247137
0.025251
0.0257894
0.0263334
0.0268916
0.0274686
0.0280618
0.0286654
0.0292918
0.0299247
0.0305837
0.0312444
0.0319289
0.0326123
0.0333253
0.0340528
0.0347938
0.0355368
0.0362783
0.0370403
0.037823
0.0386122
0.0394317
0.0402259
0.041064
0.0418742
0.0426932
0.0434984
0.0442295
0.0448507
0.0453451
0.0143457
0.0126497
0.00918515
0.00561584
0.00333574
0.00282962
0.00348549
0.00427073
0.0047583
0.00507994
0.00537445
0.00559018
0.00573744
0.00593626
0.00618569
0.00639271
0.00654196
0.00671767
0.00698822
0.00730229
0.00755877
0.00773303
0.00787712
0.00807955
0.00837368
0.00866819
0.00888409
0.00908807
0.00933984
0.0095773
0.00977834
0.0100345
0.0103826
0.0107529
0.0110986
0.011445
0.0117981
0.0121289
0.0124297
0.0127112
0.012982
0.0132533
0.0135308
0.0138212
0.0141469
0.01451