/*--------------------------------*- C++ -*----------------------------------*\
| =========                 |                                                 |
| \\      /  F ield         | OpenFOAM: The Open Source CFD Toolbox           |
|  \\    /   O peration     | Version:  3.0.1                                 |
|   \\  /    A nd           | Web:      www.OpenFOAM.org                      |
|    \\/     M anipulation  |                                                 |
\*---------------------------------------------------------------------------*/
FoamFile
{
    version     2.0;
    format      ascii;
    class       surfaceScalarField;
    location    "4.3";
    object      phi;
}
// * * * * * * * * * * * * * * * * * * * * * * * * * * * * * * * * * * * * * //

dimensions      [0 3 -1 0 0 0 0];

internalField   nonuniform List<scalar> 
19000
(
1.15208e-06
-3.39091e-08
1.15371e-06
-1.6615e-07
1.26486e-06
-1.52408e-06
1.25974e-06
5.40889e-07
1.11776e-06
1.01098e-06
1.08291e-06
3.25802e-07
1.149e-06
-1.22601e-06
1.18592e-06
-9.9313e-07
1.21158e-06
-8.80663e-07
1.19337e-06
4.60282e-09
1.2023e-06
1.91357e-07
1.20288e-06
2.95157e-07
1.18176e-06
2.24616e-07
1.16938e-06
2.26357e-07
1.16605e-06
2.27911e-08
1.15864e-06
3.5665e-09
1.16046e-06
-8.05477e-08
1.15971e-06
6.77017e-09
1.16117e-06
2.51128e-08
7.04616e-08
1.13576e-06
1.20534e-06
-1.49922e-08
1.20742e-06
-1.68221e-07
1.32702e-06
-1.64369e-06
1.33471e-06
5.33195e-07
1.17859e-06
1.1671e-06
1.15535e-06
3.49044e-07
1.21677e-06
-1.28744e-06
1.24702e-06
-1.02338e-06
1.2781e-06
-9.1174e-07
1.26091e-06
2.1793e-08
1.26313e-06
1.89141e-07
1.2724e-06
2.85888e-07
1.24224e-06
2.54775e-07
1.24214e-06
2.2645e-07
1.22651e-06
3.84208e-08
1.23295e-06
-2.87132e-09
1.2155e-06
-6.30998e-08
1.23431e-06
-1.20327e-08
1.20807e-06
5.13484e-08
5.71929e-08
1.22134e-06
1.25944e-06
8.34681e-09
1.26218e-06
-1.70962e-07
1.38656e-06
-1.76807e-06
1.42334e-06
4.96417e-07
1.26201e-06
1.32844e-06
1.23909e-06
3.71965e-07
1.28444e-06
-1.3328e-06
1.31241e-06
-1.05135e-06
1.34327e-06
-9.42593e-07
1.3377e-06
2.73556e-08
1.32848e-06
1.98363e-07
1.34956e-06
2.64812e-07
1.31259e-06
2.91747e-07
1.31759e-06
2.21447e-07
1.29614e-06
5.98741e-08
1.30298e-06
-9.71829e-09
1.28342e-06
-4.35409e-08
1.2932e-06
-2.18103e-08
1.27998e-06
6.45748e-08
6.53733e-08
1.2718e-06
1.31531e-06
3.71419e-08
1.31775e-06
-1.73406e-07
1.44084e-06
-1.89115e-06
1.5138e-06
4.23452e-07
1.36351e-06
1.47873e-06
1.33335e-06
4.02124e-07
1.35095e-06
-1.35039e-06
1.37647e-06
-1.07687e-06
1.40358e-06
-9.69706e-07
1.41182e-06
1.91109e-08
1.39809e-06
2.121e-07
1.42162e-06
2.41283e-07
1.39152e-06
3.21846e-07
1.39047e-06
2.22492e-07
1.37151e-06
7.88316e-08
1.3701e-06
-8.30879e-09
1.35547e-06
-2.89098e-08
1.35554e-06
-2.18773e-08
1.35006e-06
7.00543e-08
7.75889e-08
1.33785e-06
1.37454e-06
7.09545e-08
1.37439e-06
-1.73259e-07
1.48859e-06
-2.00535e-06
1.59512e-06
3.16923e-07
1.47564e-06
1.59821e-06
1.43323e-06
4.44533e-07
1.41683e-06
-1.33399e-06
1.43585e-06
-1.09589e-06
1.45863e-06
-9.92482e-07
1.47812e-06
-3.7944e-10
1.47027e-06
2.19942e-07
1.48976e-06
2.21799e-07
1.473e-06
3.38599e-07
1.46544e-06
2.30061e-07
1.44782e-06
9.64436e-08
1.43975e-06
-2.37222e-10
1.42657e-06
-1.5725e-08
1.42232e-06
-1.76348e-08
1.41837e-06
7.40066e-08
8.86553e-08
1.40731e-06
1.43965e-06
1.06979e-07
1.43356e-06
-1.67166e-07
1.5313e-06
-2.10309e-06
1.66211e-06
1.8612e-07
1.58917e-06
1.67115e-06
1.53442e-06
4.99277e-07
1.4855e-06
-1.28507e-06
1.49242e-06
-1.1028e-06
1.5116e-06
-1.01166e-06
1.53993e-06
-2.87073e-08
1.54377e-06
2.16103e-07
1.5594e-06
2.06162e-07
1.55343e-06
3.44571e-07
1.54344e-06
2.4005e-07
1.52464e-06
1.15245e-07
1.51179e-06
1.26111e-08
1.49762e-06
-1.55255e-09
1.49054e-06
-1.05593e-08
1.48699e-06
7.75578e-08
9.87678e-08
1.47688e-06
1.51285e-06
1.40341e-07
1.49788e-06
-1.52196e-07
1.57335e-06
-2.17856e-06
1.71643e-06
4.3048e-08
1.69519e-06
1.69239e-06
1.63344e-06
5.61032e-07
1.55973e-06
-1.21136e-06
1.55095e-06
-1.09403e-06
1.56615e-06
-1.02687e-06
1.60225e-06
-6.47989e-08
1.61796e-06
2.00387e-07
1.63289e-06
1.91235e-07
1.63304e-06
3.44425e-07
1.62317e-06
2.49919e-07
1.60288e-06
1.35536e-07
1.58605e-06
2.94343e-08
1.57014e-06
1.4363e-08
1.56016e-06
-5.86629e-10
1.55652e-06
8.12063e-08
1.08319e-07
1.54697e-06
1.59463e-06
1.65842e-07
1.57023e-06
-1.27796e-07
1.62024e-06
-2.22858e-06
1.76385e-06
-1.00555e-07
1.78811e-06
1.66812e-06
1.72738e-06
6.21764e-07
1.63951e-06
-1.12349e-06
1.61542e-06
-1.06994e-06
1.62477e-06
-1.03622e-06
1.66719e-06
-1.07213e-07
1.69233e-06
1.75246e-07
1.70905e-06
1.74518e-07
1.71255e-06
3.40915e-07
1.70348e-06
2.58993e-07
1.68256e-06
1.56461e-07
1.6627e-06
4.92915e-08
1.64514e-06
3.19218e-08
1.63223e-06
1.23187e-08
1.62793e-06
8.55148e-08
1.17634e-07
1.61861e-06
1.68319e-06
1.80223e-07
1.65213e-06
-9.67305e-08
1.6761e-06
-2.25255e-06
1.81027e-06
-2.34728e-07
1.86702e-06
1.61138e-06
1.8145e-06
6.74281e-07
1.72294e-06
-1.03193e-06
1.68758e-06
-1.03459e-06
1.68901e-06
-1.03764e-06
1.73454e-06
-1.52748e-07
1.76581e-06
1.43981e-07
1.78519e-06
1.55132e-07
1.79133e-06
3.34783e-07
1.78346e-06
2.66862e-07
1.76314e-06
1.7678e-07
1.74158e-06
7.08538e-08
1.72314e-06
5.03539e-08
1.70769e-06
2.77774e-08
1.7023e-06
9.08982e-08
1.26958e-07
1.69298e-06
1.77554e-06
1.83403e-07
1.74291e-06
-6.41031e-08
1.74249e-06
-2.25212e-06
1.85959e-06
-3.51836e-07
1.93478e-06
1.53619e-06
1.89493e-06
7.14133e-07
1.80814e-06
-9.45133e-07
1.7674e-06
-9.93854e-07
1.75989e-06
-1.03013e-06
1.80396e-06
-1.96816e-07
1.83754e-06
1.10402e-07
1.85914e-06
1.33528e-07
1.86811e-06
3.25815e-07
1.86231e-06
2.72662e-07
1.84415e-06
1.94938e-07
1.82245e-06
9.25543e-08
1.80427e-06
6.85338e-08
1.78706e-06
4.49914e-08
1.78039e-06
9.75676e-08
1.36387e-07
1.77096e-06
1.86921e-06
1.77942e-07
1.84022e-06
-3.511e-08
1.81895e-06
-2.23085e-06
1.91407e-06
-4.46957e-07
1.99631e-06
1.45395e-06
1.97084e-06
7.39604e-07
1.89432e-06
-8.6862e-07
1.85388e-06
-9.53409e-07
1.83798e-06
-1.01423e-06
1.87618e-06
-2.35019e-07
1.90816e-06
7.84289e-08
1.93063e-06
1.11057e-07
1.94261e-06
3.13834e-07
1.93989e-06
2.75386e-07
1.9255e-06
2.09319e-07
1.90526e-06
1.12796e-07
1.88847e-06
8.53226e-08
1.87055e-06
6.29158e-08
1.86258e-06
1.05532e-07
1.45864e-07
1.85311e-06
1.96337e-06
1.67406e-07
1.94136e-06
-1.30943e-08
1.9042e-06
-2.1937e-06
1.97561e-06
-5.18365e-07
2.05727e-06
1.37229e-06
2.04585e-06
7.51027e-07
1.98192e-06
-8.04698e-07
1.9457e-06
-9.17182e-07
1.92326e-06
-9.91802e-07
1.95294e-06
-2.64692e-07
1.98015e-06
5.12149e-08
2.00171e-06
8.94974e-08
2.01625e-06
2.99292e-07
2.01711e-06
2.74534e-07
2.00764e-06
2.18785e-07
1.99016e-06
1.30274e-07
1.97567e-06
9.98132e-08
1.95816e-06
8.04299e-08
1.94915e-06
1.14542e-07
1.55172e-07
1.93984e-06
2.0587e-06
1.54893e-07
2.0446e-06
1.00473e-09
1.99692e-06
-2.14601e-06
2.04614e-06
-5.6759e-07
2.12299e-06
1.29544e-06
2.12386e-06
7.50159e-07
2.07209e-06
-7.52932e-07
2.04174e-06
-8.86833e-07
2.01522e-06
-9.65282e-07
2.03606e-06
-2.85523e-07
2.05692e-06
3.03489e-08
2.0759e-06
7.05204e-08
2.09189e-06
2.83304e-07
2.09591e-06
2.70506e-07
2.09159e-06
2.23108e-07
2.07758e-06
1.44286e-07
2.06588e-06
1.11513e-07
2.04982e-06
9.64853e-08
2.04029e-06
1.24074e-07
1.63896e-07
2.03157e-06
2.15651e-06
1.42387e-07
2.14954e-06
7.96652e-09
2.096e-06
-2.09246e-06
2.12693e-06
-5.98523e-07
2.19729e-06
1.22508e-06
2.20788e-06
7.39566e-07
2.16614e-06
-7.11194e-07
2.14144e-06
-8.62129e-07
2.11306e-06
-9.36903e-07
2.1266e-06
-2.9906e-07
2.14125e-06
1.57005e-08
2.15655e-06
5.52161e-08
2.17264e-06
2.67213e-07
2.1787e-06
2.64449e-07
2.17881e-06
2.22991e-07
2.16828e-06
1.54824e-07
2.15936e-06
1.20434e-07
2.14558e-06
1.10264e-07
2.13621e-06
1.33442e-07
1.71488e-07
2.12862e-06
2.25803e-06
1.30848e-07
2.25674e-06
9.25521e-09
2.2006e-06
-2.03632e-06
2.21795e-06
-6.15867e-07
2.28177e-06
1.16126e-06
2.29945e-06
7.21889e-07
2.26513e-06
-6.76881e-07
2.24479e-06
-8.41782e-07
2.21604e-06
-9.08156e-07
2.22456e-06
-3.07583e-07
2.23432e-06
5.93983e-09
2.24565e-06
4.38867e-08
2.26082e-06
2.52047e-07
2.26757e-06
2.57703e-07
2.27085e-06
2.19704e-07
2.2633e-06
1.62378e-07
2.2567e-06
1.27033e-07
2.24566e-06
1.21308e-07
2.2371e-06
1.42002e-07
1.77473e-07
2.23111e-06
2.36416e-06
1.20568e-07
2.36709e-06
6.31722e-09
2.31017e-06
-1.9794e-06
2.31813e-06
-6.2382e-07
2.37622e-06
1.10316e-06
2.39884e-06
6.99266e-07
2.36973e-06
-6.47771e-07
2.3522e-06
-8.24248e-07
2.32375e-06
-8.79711e-07
2.32926e-06
-3.13093e-07
2.33587e-06
-6.69438e-10
2.3436e-06
3.61566e-08
2.35742e-06
2.38226e-07
2.36387e-06
2.51259e-07
2.36899e-06
2.14577e-07
2.36377e-06
1.67607e-07
2.35879e-06
1.32005e-07
2.35055e-06
1.29548e-07
2.34323e-06
1.49324e-07
1.81663e-07
2.33904e-06
2.47546e-06
1.115e-07
2.48145e-06
3.30045e-10
2.42445e-06
-1.9224e-06
2.42619e-06
-6.25555e-07
2.47967e-06
1.04968e-06
2.50577e-06
6.73161e-07
2.4803e-06
-6.22297e-07
2.46425e-06
-8.08201e-07
2.43621e-06
-8.5167e-07
2.43997e-06
-3.16847e-07
2.44494e-06
-5.64591e-09
2.44983e-06
3.12708e-08
2.46242e-06
2.25631e-07
2.46815e-06
2.45527e-07
2.47408e-06
2.08652e-07
2.47061e-06
1.71081e-07
2.46658e-06
1.36032e-07
2.46086e-06
1.35267e-07
2.45497e-06
1.55215e-07
1.84226e-07
2.45241e-06
2.59234e-06
1.03449e-07
2.60048e-06
-7.8021e-09
2.54347e-06
-1.8654e-06
2.54123e-06
-6.23315e-07
2.59126e-06
9.99654e-07
2.61989e-06
6.44531e-07
2.59702e-06
-5.99433e-07
2.5815e-06
-7.92674e-07
2.55372e-06
-8.23891e-07
2.55629e-06
-3.19419e-07
2.56066e-06
-1.00201e-08
2.56354e-06
2.83962e-08
2.5753e-06
2.1387e-07
2.58041e-06
2.4042e-07
2.58648e-06
2.02574e-07
2.58439e-06
1.73172e-07
2.58082e-06
1.39606e-07
2.57709e-06
1.38992e-07
2.57267e-06
1.59636e-07
1.85575e-07
2.57132e-06
2.71509e-06
9.61851e-08
2.72469e-06
-1.73983e-08
2.66748e-06
-1.80819e-06
2.66285e-06
-6.18685e-07
2.7105e-06
9.52008e-07
2.74097e-06
6.14062e-07
2.72002e-06
-5.78488e-07
2.70437e-06
-7.7702e-07
2.6767e-06
-7.96226e-07
2.67826e-06
-3.20978e-07
2.68259e-06
-1.43492e-08
2.68417e-06
2.68127e-08
2.69551e-06
2.02536e-07
2.70033e-06
2.35595e-07
2.70624e-06
1.96664e-07
2.70534e-06
1.74076e-07
2.70194e-06
1.42999e-07
2.69961e-06
1.41331e-07
2.69661e-06
1.62634e-07
1.86176e-07
2.69601e-06
2.84396e-06
8.94916e-08
2.85453e-06
-2.79634e-08
2.79687e-06
-1.75053e-06
2.79096e-06
-6.12772e-07
2.83714e-06
9.05832e-07
2.8689e-06
5.823e-07
2.8494e-06
-5.58987e-07
2.8332e-06
-7.60827e-07
2.80558e-06
-7.68607e-07
2.80616e-06
-3.21556e-07
2.81067e-06
-1.88557e-08
2.8115e-06
2.59805e-08
2.82268e-06
1.91362e-07
2.8276e-06
2.30666e-07
2.83322e-06
1.91047e-07
2.83337e-06
1.73923e-07
2.8301e-06
1.46275e-07
2.82858e-06
1.42851e-07
2.82691e-06
1.64305e-07
1.86381e-07
2.8267e-06
2.97919e-06
8.31988e-08
2.99038e-06
-3.91586e-08
2.93212e-06
-1.69227e-06
2.92563e-06
-6.06282e-07
2.97103e-06
8.60429e-07
3.00363e-06
5.49696e-07
2.98526e-06
-5.40619e-07
2.96829e-06
-7.43856e-07
2.94073e-06
-7.4104e-07
2.94036e-06
-3.21187e-07
2.94507e-06
-2.3571e-08
2.94552e-06
2.55283e-08
2.95664e-06
1.80245e-07
2.96198e-06
2.25326e-07
2.96727e-06
1.85755e-07
2.96836e-06
1.72833e-07
2.96527e-06
1.49368e-07
2.96412e-06
1.43998e-07
2.96363e-06
1.64796e-07
1.8635e-07
2.96366e-06
3.12101e-06
7.71915e-08
3.13262e-06
-5.07658e-08
3.07369e-06
-1.63334e-06
3.067e-06
-5.99591e-07
3.1121e-06
8.15331e-07
3.14517e-06
5.16621e-07
3.12777e-06
-5.2321e-07
3.10991e-06
-7.26004e-07
3.08244e-06
-7.1357e-07
3.08121e-06
-3.19952e-07
3.08609e-06
-2.84485e-08
3.0864e-06
2.52174e-08
3.09743e-06
1.69211e-07
3.10337e-06
2.19388e-07
3.10833e-06
1.80791e-07
3.11021e-06
1.70956e-07
3.10743e-06
1.52148e-07
3.10635e-06
1.45079e-07
3.10683e-06
1.64314e-07
1.86056e-07
3.10713e-06
3.2697e-06
7.1405e-08
3.28158e-06
-6.26467e-08
3.22206e-06
-1.57382e-06
3.21529e-06
-5.9282e-07
3.26036e-06
7.70264e-07
3.2936e-06
4.83373e-07
3.27708e-06
-5.06687e-07
3.25836e-06
-7.07279e-07
3.23104e-06
-6.86254e-07
3.22906e-06
-3.17975e-07
3.23403e-06
-3.34179e-08
3.23435e-06
2.49016e-08
3.2452e-06
1.58362e-07
3.2518e-06
2.12782e-07
3.25644e-06
1.76152e-07
3.25895e-06
1.68447e-07
3.25661e-06
1.5449e-07
3.25544e-06
1.46249e-07
3.25662e-06
1.63129e-07
1.85329e-07
3.25735e-06
3.42552e-06
6.58124e-08
3.43758e-06
-7.47016e-08
3.37765e-06
-1.51389e-06
3.37076e-06
-5.85932e-07
3.41593e-06
7.25097e-07
3.44911e-06
4.50189e-07
3.43344e-06
-4.9102e-07
3.41394e-06
-6.87775e-07
3.38682e-06
-6.59134e-07
3.38424e-06
-3.15396e-07
3.38924e-06
-3.84183e-08
3.38964e-06
2.44993e-08
3.40018e-06
1.47823e-07
3.40743e-06
2.05535e-07
3.41176e-06
1.71818e-07
3.41474e-06
1.65474e-07
3.41293e-06
1.563e-07
3.41164e-06
1.47541e-07
3.41323e-06
1.61539e-07
1.83962e-07
3.41459e-06
3.58881e-06
6.04101e-08
3.60095e-06
-8.68381e-08
3.54085e-06
-1.45379e-06
3.53373e-06
-5.78806e-07
3.57904e-06
6.79783e-07
3.61198e-06
4.17249e-07
3.59714e-06
-4.7618e-07
3.577e-06
-6.67639e-07
3.55012e-06
-6.32252e-07
3.54705e-06
-3.12327e-07
3.55205e-06
-4.34146e-08
3.55257e-06
2.39774e-08
3.56269e-06
1.37705e-07
3.57047e-06
1.97753e-07
3.57456e-06
1.67733e-07
3.57782e-06
1.62209e-07
3.57661e-06
1.57516e-07
3.57526e-06
1.48886e-07
3.57697e-06
1.59832e-07
1.81813e-07
3.57912e-06
3.75991e-06
5.5205e-08
3.77202e-06
-9.89522e-08
3.71204e-06
-1.39381e-06
3.70453e-06
-5.713e-07
3.74999e-06
6.34326e-07
3.78257e-06
3.84669e-07
3.76851e-06
-4.62114e-07
3.74791e-06
-6.47041e-07
3.72129e-06
-6.05632e-07
3.71781e-06
-3.0885e-07
3.72279e-06
-4.83956e-08
3.72343e-06
2.3337e-08
3.73305e-06
1.28087e-07
3.74123e-06
1.89572e-07
3.74513e-06
1.6383e-07
3.74853e-06
1.58817e-07
3.74796e-06
1.58077e-07
3.74665e-06
1.50198e-07
3.74828e-06
1.58209e-07
1.78892e-07
3.7512e-06
3.93919e-06
5.02051e-08
3.95116e-06
-1.10921e-07
3.89158e-06
-1.33423e-06
3.88356e-06
-5.63284e-07
3.92912e-06
5.88764e-07
3.96128e-06
3.52511e-07
3.94791e-06
-4.48742e-07
3.92702e-06
-6.26156e-07
3.90069e-06
-5.793e-07
3.89684e-06
-3.04999e-07
3.90181e-06
-5.3368e-08
3.90255e-06
2.26042e-08
3.91162e-06
1.19014e-07
3.92006e-06
1.81129e-07
3.92383e-06
1.60068e-07
3.92723e-06
1.5541e-07
3.92733e-06
1.57983e-07
3.92618e-06
1.51347e-07
3.9276e-06
1.56784e-07
1.75368e-07
3.93113e-06
4.12704e-06
4.54161e-08
4.13873e-06
-1.22609e-07
4.07984e-06
-1.27534e-06
4.07122e-06
-5.54663e-07
4.1168e-06
5.43182e-07
4.14852e-06
3.20784e-07
4.13574e-06
-4.35962e-07
4.11474e-06
-6.05152e-07
4.08873e-06
-5.5329e-07
4.0845e-06
-3.00774e-07
4.08947e-06
-5.83382e-08
4.09027e-06
2.18058e-08
4.09877e-06
1.10513e-07
4.10737e-06
1.72535e-07
4.11099e-06
1.56447e-07
4.11436e-06
1.52042e-07
4.11505e-06
1.57289e-07
4.11421e-06
1.52184e-07
4.11545e-06
1.55548e-07
1.71545e-07
4.11927e-06
4.32388e-06
4.08397e-08
4.33514e-06
-1.3387e-07
4.2772e-06
-1.2174e-06
4.26793e-06
-5.45395e-07
4.3134e-06
4.97713e-07
4.34473e-06
2.89455e-07
4.33242e-06
-4.23657e-07
4.31145e-06
-5.84183e-07
4.28582e-06
-5.27656e-07
4.28119e-06
-2.96146e-07
4.28616e-06
-6.33078e-08
4.28701e-06
2.09601e-08
4.2949e-06
1.02623e-07
4.30357e-06
1.63861e-07
4.30704e-06
1.52978e-07
4.3103e-06
1.48785e-07
4.31153e-06
1.5605e-07
4.31112e-06
1.52604e-07
4.31228e-06
1.54384e-07
1.67689e-07
4.31613e-06
4.53014e-06
3.64761e-08
4.54084e-06
-1.44569e-07
4.48405e-06
-1.16061e-06
4.47416e-06
-5.35504e-07
4.51932e-06
4.52553e-07
4.55032e-06
2.58454e-07
4.53838e-06
-4.11714e-07
4.51756e-06
-5.63367e-07
4.4924e-06
-5.0249e-07
4.48733e-06
-2.91079e-07
4.49228e-06
-6.8257e-08
4.49317e-06
2.00654e-08
4.5004e-06
9.53912e-08
4.50912e-06
1.55146e-07
4.51249e-06
1.49606e-07
4.51547e-06
1.45803e-07
4.51724e-06
1.54281e-07
4.51729e-06
1.5255e-07
4.51849e-06
1.53185e-07
1.63897e-07
4.52229e-06
4.74626e-06
3.23277e-08
4.75628e-06
-1.54589e-07
4.70081e-06
-1.10514e-06
4.6904e-06
-5.2509e-07
4.735e-06
4.07947e-07
4.76575e-06
2.27709e-07
4.75409e-06
-4.00056e-07
4.73349e-06
-5.42769e-07
4.70891e-06
-4.77906e-07
4.70337e-06
-2.85536e-07
4.70827e-06
-7.31662e-08
4.70921e-06
1.91269e-08
4.71574e-06
8.88594e-08
4.72448e-06
1.46411e-07
4.72781e-06
1.46274e-07
4.73045e-06
1.43166e-07
4.73266e-06
1.52068e-07
4.73324e-06
1.51975e-07
4.7345e-06
1.51924e-07
1.60129e-07
4.73827e-06
4.97272e-06
2.8401e-08
4.98199e-06
-1.63851e-07
4.9279e-06
-1.05105e-06
4.91714e-06
-5.14328e-07
4.96091e-06
3.64175e-07
4.99146e-06
1.97159e-07
4.98007e-06
-3.8866e-07
4.95969e-06
-5.22389e-07
4.93581e-06
-4.54034e-07
4.92978e-06
-2.79501e-07
4.93462e-06
-7.80108e-08
4.93561e-06
1.81404e-08
4.9414e-06
8.30721e-08
4.95012e-06
1.37691e-07
4.95353e-06
1.42859e-07
4.95576e-06
1.40936e-07
4.9583e-06
1.49535e-07
4.95946e-06
1.50808e-07
4.96078e-06
1.50602e-07
1.56387e-07
4.96452e-06
5.21001e-06
2.47112e-08
5.21848e-06
-1.72329e-07
5.16577e-06
-9.98341e-07
5.1549e-06
-5.03454e-07
5.19755e-06
3.21522e-07
5.22793e-06
1.66783e-07
5.21684e-06
-3.77574e-07
5.19663e-06
-5.02179e-07
5.17357e-06
-4.30972e-07
5.16706e-06
-2.72994e-07
5.17182e-06
-8.27633e-08
5.17287e-06
1.70881e-08
5.17788e-06
7.80654e-08
5.18651e-06
1.29057e-07
5.19016e-06
1.39205e-07
5.19199e-06
1.39114e-07
5.19464e-06
1.46884e-07
5.19647e-06
1.4897e-07
5.19788e-06
1.49195e-07
1.52795e-07
5.20147e-06
5.45862e-06
2.12835e-08
5.46635e-06
-1.80058e-07
5.41491e-06
-9.46901e-07
5.4042e-06
-4.92752e-07
5.44547e-06
2.80251e-07
5.47561e-06
1.36648e-07
5.46498e-06
-3.66944e-07
5.44485e-06
-4.82054e-07
5.42265e-06
-4.08766e-07
5.41572e-06
-2.66071e-07
5.42037e-06
-8.7408e-08
5.42153e-06
1.5928e-08
5.42573e-06
7.38682e-08
5.43416e-06
1.2062e-07
5.43822e-06
1.35145e-07
5.43975e-06
1.37592e-07
5.44223e-06
1.44396e-07
5.44472e-06
1.4648e-07
5.4464e-06
1.47518e-07
1.49537e-07
5.44966e-06
5.71909e-06
1.81535e-08
5.72617e-06
-1.87143e-07
5.67581e-06
-8.96538e-07
5.66557e-06
-4.82513e-07
5.70527e-06
2.40555e-07
5.73499e-06
1.06923e-07
5.72501e-06
-3.5696e-07
5.70494e-06
-4.61991e-07
5.68357e-06
-3.8739e-07
5.67627e-06
-2.58774e-07
5.68081e-06
-9.19423e-08
5.68216e-06
1.45777e-08
5.68551e-06
7.0514e-08
5.6936e-06
1.12527e-07
5.69823e-06
1.30523e-07
5.69965e-06
1.36165e-07
5.70172e-06
1.42327e-07
5.70467e-06
1.43528e-07
5.70692e-06
1.45276e-07
1.46693e-07
5.70976e-06
5.99198e-06
1.53648e-08
5.99858e-06
-1.93738e-07
5.94906e-06
-8.4702e-07
5.93953e-06
-4.72984e-07
5.97758e-06
2.02501e-07
6.00658e-06
7.7928e-08
5.99751e-06
-3.47885e-07
5.97754e-06
-4.42023e-07
5.95687e-06
-3.66722e-07
5.94925e-06
-2.51153e-07
5.95366e-06
-9.63565e-08
5.95531e-06
1.29291e-08
5.95782e-06
6.80018e-08
5.96539e-06
1.04959e-07
5.97069e-06
1.25223e-07
5.97223e-06
1.34625e-07
5.97381e-06
1.40751e-07
5.97688e-06
1.40453e-07
5.97987e-06
1.4229e-07
1.44051e-07
5.98251e-06
6.27789e-06
1.29654e-08
6.28419e-06
-2.00041e-07
6.23528e-06
-7.98107e-07
6.22662e-06
-4.64325e-07
6.2631e-06
1.66019e-07
6.29093e-06
5.00922e-08
6.28303e-06
-3.3998e-07
6.2633e-06
-4.22292e-07
6.24316e-06
-3.46582e-07
6.23521e-06
-2.43202e-07
6.2395e-06
-1.00649e-07
6.24155e-06
1.0876e-08
6.24327e-06
6.62874e-08
6.25015e-06
9.80739e-08
6.2561e-06
1.19276e-07
6.25804e-06
1.32681e-07
6.25916e-06
1.39632e-07
6.26203e-06
1.37588e-07
6.26568e-06
1.38634e-07
1.41208e-07
6.26853e-06
6.57744e-06
1.09973e-08
6.58364e-06
-2.06245e-07
6.53518e-06
-7.49646e-07
6.52737e-06
-4.56514e-07
6.56249e-06
1.30895e-07
6.58872e-06
2.3871e-08
6.58206e-06
-3.33324e-07
6.56287e-06
-4.03098e-07
6.5431e-06
-3.26813e-07
6.53473e-06
-2.34833e-07
6.53887e-06
-1.0479e-07
6.54144e-06
8.30859e-09
6.54249e-06
6.52357e-08
6.5485e-06
9.20573e-08
6.555e-06
1.12775e-07
6.55762e-06
1.30062e-07
6.55847e-06
1.38788e-07
6.56085e-06
1.35211e-07
6.56495e-06
1.34527e-07
1.3782e-07
6.56834e-06
6.8913e-06
9.49251e-09
6.89756e-06
-2.12515e-07
6.84956e-06
-7.0164e-07
6.84233e-06
-4.49284e-07
6.87644e-06
9.67837e-08
6.90055e-06
-2.38529e-10
6.89506e-06
-3.27831e-07
6.87677e-06
-3.8481e-07
6.85734e-06
-3.07387e-07
6.84842e-06
-2.25909e-07
6.85229e-06
-1.08666e-07
6.8555e-06
5.10541e-09
6.85612e-06
6.46148e-08
6.8611e-06
8.70725e-08
6.86797e-06
1.05911e-07
6.87152e-06
1.2651e-07
6.87234e-06
1.37966e-07
6.87411e-06
1.33441e-07
6.8783e-06
1.30338e-07
1.33672e-07
6.88245e-06
7.22017e-06
8.45998e-09
7.22658e-06
-2.18924e-07
7.1793e-06
-6.54366e-07
7.172e-06
-4.41976e-07
7.20549e-06
6.32873e-08
7.22719e-06
-2.19351e-08
7.22259e-06
-3.23232e-07
7.20562e-06
-3.6784e-07
7.1866e-06
-2.88368e-07
7.17698e-06
-2.16286e-07
7.18033e-06
-1.12017e-07
7.18427e-06
1.16089e-09
7.18475e-06
6.41384e-08
7.18867e-06
8.31525e-08
7.19559e-06
9.89884e-08
7.20023e-06
1.21875e-07
7.20137e-06
1.3682e-07
7.20258e-06
1.32237e-07
7.20647e-06
1.26446e-07
1.28764e-07
7.21138e-06
7.56481e-06
7.87427e-09
7.57132e-06
-2.25429e-07
7.52534e-06
-6.08389e-07
7.51696e-06
-4.33595e-07
7.55023e-06
3.0014e-08
7.56954e-06
-4.12399e-08
7.56528e-06
-3.18978e-07
7.54998e-06
-3.5254e-07
7.53158e-06
-2.69967e-07
7.52111e-06
-2.05815e-07
7.52364e-06
-1.14548e-07
7.5283e-06
-3.50058e-09
7.52902e-06
6.34226e-08
7.53194e-06
8.02299e-08
7.53859e-06
9.234e-08
7.5443e-06
1.1616e-07
7.54612e-06
1.35005e-07
7.54698e-06
1.3138e-07
7.55025e-06
1.23178e-07
1.2334e-07
7.55567e-06
7.92602e-06
7.66436e-09
7.93243e-06
-2.31837e-07
7.88855e-06
-5.6451e-07
7.87797e-06
-4.23016e-07
7.91147e-06
-3.48616e-09
7.92887e-06
-5.86342e-08
7.9242e-06
-3.14308e-07
7.91069e-06
-3.39029e-07
7.89301e-06
-2.52288e-07
7.88152e-06
-1.94324e-07
7.88295e-06
-1.15978e-07
7.88824e-06
-8.7984e-09
7.88953e-06
6.21343e-08
7.89168e-06
7.80821e-08
7.89772e-06
8.62985e-08
7.90436e-06
1.09523e-07
7.90715e-06
1.32212e-07
7.90798e-06
1.30552e-07
7.91052e-06
1.20637e-07
1.17901e-07
7.91596e-06
8.30462e-06
7.72252e-09
8.31062e-06
-2.37838e-07
8.26976e-06
-5.2365e-07
8.25605e-06
-4.09307e-07
8.29021e-06
-3.76388e-08
8.30707e-06
-7.54926e-08
8.30053e-06
-3.07773e-07
8.28767e-06
-3.26173e-07
8.27115e-06
-2.35763e-07
8.25897e-06
-1.82143e-07
8.2591e-06
-1.16114e-07
8.26488e-06
-1.45695e-08
8.267e-06
6.00127e-08
8.26865e-06
7.64279e-08
8.27386e-06
8.10932e-08
8.28109e-06
1.02286e-07
8.2851e-06
1.28206e-07
8.28621e-06
1.29437e-07
8.28819e-06
1.18658e-07
1.13009e-07
8.29308e-06
8.70147e-06
7.91173e-09
8.70669e-06
-2.43052e-07
8.6697e-06
-4.86665e-07
8.65258e-06
-3.92189e-07
8.68542e-06
-7.04735e-08
8.69949e-06
-8.95663e-08
8.69112e-06
-2.99401e-07
8.68077e-06
-3.15825e-07
8.66677e-06
-2.21759e-07
8.65447e-06
-1.69849e-07
8.65308e-06
-1.14716e-07
8.6591e-06
-2.05919e-08
8.66221e-06
5.68988e-08
8.66371e-06
7.4928e-08
8.66797e-06
7.68384e-08
8.67537e-06
9.48867e-08
8.68067e-06
1.22902e-07
8.68237e-06
1.27737e-07
8.68406e-06
1.16971e-07
1.08969e-07
8.6881e-06
9.11748e-06
8.05219e-09
9.12149e-06
-2.47063e-07
9.08883e-06
-4.54001e-07
9.06818e-06
-3.71539e-07
9.09818e-06
-1.0048e-07
9.11291e-06
-1.04293e-07
9.10264e-06
-2.89135e-07
9.09282e-06
-3.05997e-07
9.08112e-06
-2.10061e-07
9.06898e-06
-1.57712e-07
9.06595e-06
-1.11687e-07
9.07175e-06
-2.63884e-08
9.07602e-06
5.26287e-08
9.07765e-06
7.32964e-08
9.08101e-06
7.34749e-08
9.08812e-06
8.77783e-08
9.09466e-06
1.16363e-07
9.09716e-06
1.25235e-07
9.09884e-06
1.15293e-07
1.05721e-07
9.10209e-06
9.55357e-06
7.94182e-09
9.5559e-06
-2.49393e-07
9.52786e-06
-4.2596e-07
9.50489e-06
-3.48568e-07
9.53139e-06
-1.26982e-07
9.54705e-06
-1.19953e-07
9.53473e-06
-2.76814e-07
9.52413e-06
-2.95398e-07
9.51473e-06
-2.00664e-07
9.50351e-06
-1.46489e-07
9.499e-06
-1.07173e-07
9.50401e-06
-3.14052e-08
9.50936e-06
4.72763e-08
9.51138e-06
7.12835e-08
9.51406e-06
7.07968e-08
9.52052e-06
8.13177e-08
9.52796e-06
1.08921e-07
9.53148e-06
1.2171e-07
9.53331e-06
1.13469e-07
1.02984e-07
9.53604e-06
1.00107e-05
7.36997e-09
1.00109e-05
-2.49546e-07
9.98759e-06
-4.02688e-07
9.96344e-06
-3.24416e-07
9.98536e-06
-1.48902e-07
1.00021e-05
-1.36714e-07
9.98887e-06
-2.63566e-07
9.97615e-06
-2.82675e-07
9.96849e-06
-1.93012e-07
9.9589e-06
-1.36895e-07
9.95334e-06
-1.0161e-07
9.95726e-06
-3.53294e-08
9.96328e-06
4.12545e-08
9.96587e-06
6.86939e-08
9.96809e-06
6.85804e-08
9.97372e-06
7.56906e-08
9.98161e-06
1.01025e-07
9.98627e-06
1.17049e-07
9.98836e-06
1.11383e-07
1.00455e-07
9.99089e-06
1.04899e-05
6.13026e-09
1.04875e-05
-2.4715e-07
1.04688e-05
-3.83986e-07
1.04448e-05
-3.00482e-07
1.04614e-05
-1.6542e-07
1.04787e-05
-1.5408e-07
1.04661e-05
-2.50938e-07
1.04507e-05
-2.67311e-07
1.04436e-05
-1.85851e-07
1.04358e-05
-1.29159e-07
1.043e-05
-9.57976e-08
1.04327e-05
-3.80036e-08
1.0439e-05
3.49761e-08
1.04421e-05
6.55352e-08
1.04441e-05
6.66167e-08
1.04489e-05
7.09426e-08
1.04567e-05
9.31312e-08
1.04625e-05
1.11285e-07
1.0465e-05
1.08896e-07
9.79402e-08
1.04675e-05
1.09921e-05
4.04711e-09
1.09869e-05
-2.41985e-07
1.09723e-05
-3.69396e-07
1.09501e-05
-2.78197e-07
1.09604e-05
-1.75785e-07
1.09774e-05
-1.7108e-07
1.09671e-05
-2.40619e-07
1.09496e-05
-2.49823e-07
1.09414e-05
-1.77664e-07
1.09353e-05
-1.23026e-07
1.09299e-05
-9.04029e-08
1.09314e-05
-3.95368e-08
1.09376e-05
2.87693e-08
1.09413e-05
6.19065e-08
1.09431e-05
6.47463e-08
1.09471e-05
6.70031e-08
1.09546e-05
8.5644e-08
1.09612e-05
1.04607e-07
1.09643e-05
1.05807e-07
9.53826e-08
1.09669e-05
1.15184e-05
9.96098e-10
1.15105e-05
-2.34043e-07
1.14993e-05
-3.58228e-07
1.14799e-05
-2.58843e-07
1.1484e-05
-1.79868e-07
1.14992e-05
-1.86216e-07
1.14923e-05
-2.33734e-07
1.14738e-05
-2.31362e-07
1.14638e-05
-1.67621e-07
1.14584e-05
-1.17684e-07
1.14537e-05
-8.56689e-08
1.14546e-05
-4.04114e-08
1.14604e-05
2.29901e-08
1.14644e-05
5.78471e-08
1.14663e-05
6.28607e-08
1.14696e-05
6.37416e-08
1.14763e-05
7.88603e-08
1.14837e-05
9.73037e-08
1.14875e-05
1.0198e-07
9.27452e-08
1.14901e-05
1.20699e-05
-3.06086e-09
1.20595e-05
-2.23644e-07
1.20507e-05
-3.49487e-07
1.20353e-05
-2.43424e-07
1.20335e-05
-1.78066e-07
1.20452e-05
-1.97916e-07
1.2042e-05
-2.30488e-07
1.20242e-05
-2.13616e-07
1.20122e-05
-1.5557e-07
1.20066e-05
-1.12074e-07
1.20026e-05
-8.16573e-08
1.20031e-05
-4.09411e-08
1.20084e-05
1.76974e-08
1.20127e-05
5.34734e-08
1.20148e-05
6.08495e-08
1.20175e-05
6.1002e-08
1.20234e-05
7.29582e-08
1.20309e-05
8.97659e-08
1.20356e-05
9.73405e-08
8.99463e-08
1.20384e-05
1.26476e-05
-8.02734e-09
1.26351e-05
-2.11175e-07
1.26275e-05
-3.41875e-07
1.26166e-05
-2.32565e-07
1.261e-05
-1.71495e-07
1.26169e-05
-2.04738e-07
1.26166e-05
-2.30216e-07
1.26016e-05
-1.98575e-07
1.25879e-05
-1.41937e-07
1.25813e-05
-1.05417e-07
1.25776e-05
-7.8018e-08
1.2578e-05
-4.12663e-08
1.25829e-05
1.27779e-08
1.25874e-05
4.89005e-08
1.25897e-05
5.86158e-08
1.25921e-05
5.85869e-08
1.25971e-05
6.79478e-08
1.26044e-05
8.24306e-08
1.26099e-05
9.19224e-08
8.68299e-08
1.2613e-05
1.32526e-05
-1.3678e-08
1.32381e-05
-1.96684e-07
1.32305e-05
-3.34274e-07
1.32241e-05
-2.26218e-07
1.3215e-05
-1.62355e-07
1.32156e-05
-2.053e-07
1.32168e-05
-2.31463e-07
1.32062e-05
-1.87957e-07
1.31923e-05
-1.27997e-07
1.31842e-05
-9.73578e-08
1.31803e-05
-7.40992e-08
1.31805e-05
-4.14704e-08
1.31851e-05
8.16958e-09
1.31898e-05
4.41483e-08
1.31923e-05
5.6197e-08
1.31945e-05
5.63152e-08
1.31988e-05
6.36982e-08
1.32056e-05
7.5654e-08
1.32115e-05
8.5961e-08
8.32169e-08
1.32151e-05
1.38862e-05
-1.96865e-08
1.38713e-05
-1.81796e-07
1.3862e-05
-3.25023e-07
1.3859e-05
-2.23209e-07
1.38493e-05
-1.52659e-07
1.38436e-05
-1.99588e-07
1.38438e-05
-2.31596e-07
1.38386e-05
-1.82773e-07
1.38262e-05
-1.1566e-07
1.38168e-05
-8.78796e-08
1.3812e-05
-6.93931e-08
1.38119e-05
-4.1356e-08
1.38162e-05
3.87879e-09
1.38212e-05
3.91588e-08
1.38239e-05
5.3555e-08
1.38261e-05
5.41027e-08
1.38298e-05
6.0002e-08
1.38358e-05
6.9573e-08
1.3842e-05
7.9843e-08
7.90384e-08
1.38461e-05
1.45496e-05
-2.56055e-08
1.45344e-05
-1.66588e-07
1.45229e-05
-3.13523e-07
1.45227e-05
-2.23081e-07
1.45144e-05
-1.44322e-07
1.4504e-05
-1.89149e-07
1.45002e-05
-2.27836e-07
1.44992e-05
-1.818e-07
1.44906e-05
-1.0699e-07
1.44804e-05
-7.76989e-08
1.44746e-05
-6.35943e-08
1.44738e-05
-4.05699e-08
1.44777e-05
-1.42599e-11
1.44828e-05
3.40061e-08
1.44858e-05
5.05635e-08
1.4488e-05
5.19516e-08
1.44913e-05
5.66991e-08
1.44967e-05
6.41423e-08
1.45027e-05
7.39068e-08
7.44399e-08
1.45073e-05
1.52443e-05
-3.10053e-08
1.52302e-05
-1.5251e-07
1.52152e-05
-2.98554e-07
1.52168e-05
-2.24652e-07
1.52112e-05
-1.38745e-07
1.51982e-05
-1.76096e-07
1.51896e-05
-2.19271e-07
1.51899e-05
-1.82044e-07
1.51858e-05
-1.02901e-07
1.51763e-05
-6.82589e-08
1.51694e-05
-5.66468e-08
1.51677e-05
-3.88822e-08
1.5171e-05
-3.31683e-09
1.51761e-05
2.88962e-08
1.51796e-05
4.70515e-08
1.51818e-05
4.97481e-08
1.51847e-05
5.37812e-08
1.51896e-05
5.92426e-08
1.51953e-05
6.82776e-08
6.97272e-08
1.52e-05
1.59718e-05
-3.54954e-08
1.59593e-05
-1.39995e-07
1.5941e-05
-2.80265e-07
1.59427e-05
-2.26379e-07
1.59405e-05
-1.36546e-07
1.5927e-05
-1.62522e-07
1.59143e-05
-2.06619e-07
1.59129e-05
-1.80661e-07
1.59127e-05
-1.02712e-07
1.59056e-05
-6.11256e-08
1.5898e-05
-4.9007e-08
1.58952e-05
-3.61558e-08
1.58976e-05
-5.71517e-09
1.59025e-05
2.40008e-08
1.59065e-05
4.31311e-08
1.5909e-05
4.72579e-08
1.59115e-05
5.11899e-08
1.59159e-05
5.48817e-08
1.59213e-05
6.28585e-08
6.51081e-08
1.59259e-05
1.67339e-05
-3.87828e-08
1.67225e-05
-1.28654e-07
1.67019e-05
-2.59581e-07
1.67025e-05
-2.27021e-07
1.67037e-05
-1.37727e-07
1.66911e-05
-1.49978e-07
1.66759e-05
-1.9134e-07
1.66713e-05
-1.76054e-07
1.66731e-05
-1.04582e-07
1.66691e-05
-5.70862e-08
1.66617e-05
-4.16488e-08
1.6658e-05
-3.24288e-08
1.66594e-05
-7.09503e-09
1.66639e-05
1.94462e-08
1.66679e-05
3.91359e-08
1.66708e-05
4.43576e-08
1.66733e-05
4.86747e-08
1.66771e-05
5.11682e-08
1.66823e-05
5.76211e-08
6.05759e-08
1.66868e-05
1.75324e-05
-4.08129e-08
1.75237e-05
-1.19986e-07
1.75014e-05
-2.37309e-07
1.74987e-05
-2.24229e-07
1.75022e-05
-1.4128e-07
1.74917e-05
-1.3943e-07
1.74753e-05
-1.74971e-07
1.74674e-05
-1.68169e-07
1.74691e-05
-1.06281e-07
1.7468e-05
-5.59724e-08
1.7462e-05
-3.56323e-08
1.74576e-05
-2.80449e-08
1.74578e-05
-7.32709e-09
1.74618e-05
1.54257e-08
1.74659e-05
3.51281e-08
1.74689e-05
4.12751e-08
1.74717e-05
4.59235e-08
1.74749e-05
4.79973e-08
1.74796e-05
5.28443e-08
5.59635e-08
1.74842e-05
1.83692e-05
-4.16602e-08
1.83624e-05
-1.13218e-07
1.83405e-05
-2.15432e-07
1.83339e-05
-2.17602e-07
1.8338e-05
-1.45383e-07
1.833e-05
-1.31383e-07
1.83137e-05
-1.58698e-07
1.83033e-05
-1.57744e-07
1.83032e-05
-1.06234e-07
1.8304e-05
-5.67839e-08
1.82999e-05
-3.15172e-08
1.82955e-05
-2.36492e-08
1.82948e-05
-6.60363e-09
1.8298e-05
1.22593e-08
1.8302e-05
3.10726e-08
1.83051e-05
3.82285e-08
1.83081e-05
4.2944e-08
1.83111e-05
4.50032e-08
1.83151e-05
4.87756e-08
5.12874e-08
1.83198e-05
1.92462e-05
-4.14912e-08
1.92408e-05
-1.07752e-07
1.92204e-05