/*--------------------------------*- C++ -*----------------------------------*\
| =========                 |                                                 |
| \\      /  F ield         | OpenFOAM: The Open Source CFD Toolbox           |
|  \\    /   O peration     | Version:  3.0.1                                 |
|   \\  /    A nd           | Web:      www.OpenFOAM.org                      |
|    \\/     M anipulation  |                                                 |
\*---------------------------------------------------------------------------*/
FoamFile
{
    version     2.0;
    format      ascii;
    class       volVectorField;
    location    "4.3";
    object      U;
}
// * * * * * * * * * * * * * * * * * * * * * * * * * * * * * * * * * * * * * //

dimensions      [0 1 -1 0 0 0 0];

internalField   nonuniform List<vector> 
9600
(
(0.648236 -0.000469649 0)
(1.2982 -0.0018091 0)
(0.697638 -0.0170944 0)
(1.43991 0.00715543 0)
(0.747768 0.0129073 0)
(1.14075 0.00457859 0)
(0.732074 -0.019583 0)
(1.21911 -0.0174993 0)
(0.820167 -0.0170103 0)
(1.24165 -0.000212287 0)
(0.817389 0.00460211 0)
(1.22652 0.0076017 0)
(0.845545 0.00581606 0)
(1.16363 0.00660694 0)
(0.849708 0.000610361 0)
(1.13888 1.12583e-05 0)
(0.849791 -0.00325271 0)
(1.12863 0.000443455 0)
(0.85881 0.00088279 0)
(1.12391 0.00324404 0)
(0.665484 -0.000255598 0)
(1.27889 -0.0017882 0)
(0.713489 -0.0188468 0)
(1.42767 0.00675473 0)
(0.782092 0.0150649 0)
(1.12277 0.00514619 0)
(0.781156 -0.0211648 0)
(1.19475 -0.0183751 0)
(0.850009 -0.0178059 0)
(1.22554 0.000266598 0)
(0.849321 0.00442995 0)
(1.20067 0.00740509 0)
(0.890604 0.00653464 0)
(1.12706 0.00687391 0)
(0.91138 0.000937567 0)
(1.08774 0.000116254 0)
(0.929778 -0.00277807 0)
(1.05221 -0.00019111 0)
(0.964742 0.00205832 0)
(1.00931 0.0022123 0)
(0.698643 -3.48844e-05 0)
(1.24327 -0.00186384 0)
(0.741626 -0.0204244 0)
(1.3961 0.00667879 0)
(0.848224 0.0176761 0)
(1.10237 0.00546062 0)
(0.842616 -0.0220739 0)
(1.15275 -0.0188531 0)
(0.896877 -0.0184163 0)
(1.18875 0.000606095 0)
(0.907864 0.00447828 0)
(1.1544 0.00707622 0)
(0.957377 0.00763456 0)
(1.08216 0.00677488 0)
(0.976731 0.00164238 0)
(1.0441 -0.000291132 0)
(0.986564 -0.00202321 0)
(1.01431 -0.000837206 0)
(1.00028 0.00277333 0)
(0.997162 0.0028746 0)
(0.745416 0.000218604 0)
(1.19422 -0.00190584 0)
(0.77971 -0.0218945 0)
(1.34407 0.00617374 0)
(0.927985 0.0199358 0)
(1.08781 0.00590113 0)
(0.906051 -0.022612 0)
(1.10197 -0.0194035 0)
(0.94508 -0.0189662 0)
(1.13906 0.000564395 0)
(0.968076 0.00482536 0)
(1.10786 0.00648387 0)
(1.01071 0.00861092 0)
(1.05633 0.00667074 0)
(1.01467 0.00229945 0)
(1.02832 -0.000406573 0)
(1.00811 -0.00139366 0)
(1.00936 -0.000982049 0)
(1.00645 0.00305646 0)
(1.00355 0.0036374 0)
(0.801225 0.000538528 0)
(1.1381 -0.00192131 0)
(0.822436 -0.0232872 0)
(1.27613 0.00497644 0)
(1.00249 0.0218259 0)
(1.08335 0.00650027 0)
(0.959385 -0.0225666 0)
(1.05492 -0.0198628 0)
(0.979307 -0.0194189 0)
(1.09133 0.000226317 0)
(1.01034 0.00512866 0)
(1.0764 0.00587574 0)
(1.03967 0.00924342 0)
(1.05019 0.00682165 0)
(1.03197 0.00287911 0)
(1.02692 -0.000208696 0)
(1.01525 -0.000865125 0)
(1.01093 -0.000869527 0)
(1.00857 0.0032599 0)
(1.00623 0.00427043 0)
(0.85909 0.000898498 0)
(1.08429 -0.00189862 0)
(0.86321 -0.0245318 0)
(1.20176 0.0033386 0)
(1.0586 0.023207 0)
(1.08781 0.00729039 0)
(0.997731 -0.0219439 0)
(1.02103 -0.0201126 0)
(0.994569 -0.019817 0)
(1.05563 -0.000301829 0)
(1.03168 0.00517401 0)
(1.06101 0.00542812 0)
(1.05159 0.00954107 0)
(1.05232 0.00711202 0)
(1.04048 0.00348141 0)
(1.0288 0.000181381 0)
(1.01798 -0.000338938 0)
(1.01167 -0.000637086 0)
(1.00898 0.00344552 0)
(1.00655 0.00481022 0)
(0.911386 0.00125645 0)
(1.04182 -0.00178883 0)
(0.896863 -0.0255487 0)
(1.13224 0.00149701 0)
(1.09107 0.0238948 0)
(1.0955 0.00822216 0)
(1.02245 -0.0208454 0)
(1.00236 -0.0200721 0)
(0.995699 -0.0201651 0)
(1.0327 -0.000989171 0)
(1.03879 0.00493629 0)
(1.055 0.00506663 0)
(1.05563 0.00960328 0)
(1.05528 0.00741969 0)
(1.0453 0.00413449 0)
(1.03075 0.00072152 0)
(1.01899 0.000246438 0)
(1.01141 -0.000269755 0)
(1.0079 0.0036129 0)
(1.00543 0.00529719 0)
(0.95232 0.0015604 0)
(1.01555 -0.0015651 0)
(0.921733 -0.0262849 0)
(1.07589 -0.000409735 0)
(1.10159 0.0238605 0)
(1.10018 0.00916937 0)
(1.03683 -0.0194443 0)
(0.99532 -0.0197325 0)
(0.990637 -0.0204251 0)
(1.01816 -0.00183315 0)
(1.03841 0.00444709 0)
(1.05183 0.00467491 0)
(1.05617 0.00953965 0)
(1.05654 0.00770635 0)
(1.04757 0.00482235 0)
(1.03196 0.00139239 0)
(1.01922 0.000909538 0)
(1.0107 0.00022868 0)
(1.0062 0.00378207 0)
(1.00344 0.00575976 0)
(0.979621 0.00176518 0)
(1.00455 -0.00124158 0)
(0.93943 -0.0267158 0)
(1.03524 -0.0022412 0)
(1.09585 0.0232407 0)
(1.09836 0.0100421 0)
(1.04354 -0.0179138 0)
(0.994821 -0.0191513 0)
(0.985344 -0.0205466 0)
(1.00787 -0.00279744 0)
(1.03398 0.00376339 0)
(1.04749 0.00420955 0)
(1.05379 0.00940451 0)
(1.05521 0.00796243 0)
(1.04738 0.00551382 0)
(1.03196 0.00215339 0)
(1.01893 0.00160825 0)
(1.00987 0.00084445 0)
(1.00451 0.00399476 0)
(1.00128 0.00622333 0)
(0.994617 0.00185111 0)
(1.00373 -0.000865526 0)
(0.95279 -0.0268425 0)
(1.00814 -0.00388017 0)
(1.08032 0.022252 0)
(1.08982 0.0107498 0)
(1.04448 -0.0164122 0)
(0.996926 -0.0184284 0)
(0.982502 -0.020492 0)
(0.999866 -0.0037917 0)
(1.02684 0.00297372 0)
(1.04031 0.00367742 0)
(1.04805 0.00919661 0)
(1.05089 0.0081706 0)
(1.04472 0.00615993 0)
(1.03051 0.00294349 0)
(1.01806 0.00231606 0)
(1.00906 0.00156077 0)
(1.00314 0.00427436 0)
(0.999361 0.00668649 0)
(1.00087 0.00183292 0)
(1.00718 -0.000508764 0)
(0.963901 -0.0266889 0)
(0.99089 -0.00525201 0)
(1.06044 0.0210974 0)
(1.07661 0.0112277 0)
(1.04141 -0.0150569 0)
(0.999352 -0.0176723 0)
(0.982368 -0.0202547 0)
(0.99376 -0.00470024 0)
(1.01811 0.00218191 0)
(1.0305 0.00310453 0)
(1.03916 0.00890415 0)
(1.04373 0.00830088 0)
(1.03979 0.00670128 0)
(1.02766 0.0037098 0)
(1.01657 0.00299906 0)
(1.00818 0.00233295 0)
(1.0021 0.00461621 0)
(0.99783 0.00714455 0)
(1.00231 0.00174472 0)
(1.01073 -0.000223707 0)
(0.973471 -0.0263184 0)
(0.980421 -0.00631684 0)
(1.04031 0.0199103 0)
(1.06165 0.0114805 0)
(1.0362 -0.0139048 0)
(1.00106 -0.0169701 0)
(0.984023 -0.0198624 0)
(0.989668 -0.00543754 0)
(1.00927 0.00147682 0)
(1.01961 0.00253259 0)
(1.02837 0.00853115 0)
(1.03463 0.00832801 0)
(1.03322 0.00708868 0)
(1.02364 0.00440142 0)
(1.01444 0.00360972 0)
(1.00711 0.00310234 0)
(1.00132 0.00501385 0)
(0.996726 0.00760323 0)
(1.00186 0.00162205 0)
(1.01266 -2.86672e-05 0)
(0.981376 -0.0258031 0)
(0.974738 -0.00708384 0)
(1.02281 0.0187723 0)
(1.04757 0.0115359 0)
(1.03051 -0.0129628 0)
(1.00179 -0.0163689 0)
(0.98632 -0.0193647 0)
(0.987508 -0.00597463 0)
(1.00179 0.000914595 0)
(1.00954 0.00200907 0)
(1.01755 0.00809947 0)
(1.02497 0.00824911 0)
(1.02587 0.00730133 0)
(1.01885 0.0049764 0)
(1.01176 0.00411455 0)
(1.00575 0.00381924 0)
(1.00064 0.00545932 0)
(0.996044 0.00805049 0)
(1.00109 0.00149199 0)
(1.01295 7.86464e-05 0)
(0.987449 -0.0252007 0)
(0.972397 -0.00759442 0)
(1.00941 0.0177259 0)
(1.03598 0.011432 0)
(1.02545 -0.0122008 0)
(1.00172 -0.0158767 0)
(0.988413 -0.0188142 0)
(0.986828 -0.00633271 0)
(0.996496 0.000508398 0)
(1.00166 0.00156961 0)
(1.00829 0.00764341 0)
(1.01608 0.00809044 0)
(1.01872 0.00735073 0)
(1.01382 0.00541852 0)
(1.00871 0.00450816 0)
(1.00411 0.00444444 0)
(0.999972 0.00592477 0)
(0.995731 0.00845103 0)
(1.00057 0.00136921 0)
(1.01222 0.000115467 0)
(0.99182 -0.0245546 0)
(0.972146 -0.00790192 0)
(1.00024 0.0167803 0)
(1.02728 0.0112073 0)
(1.02148 -0.0115771 0)
(1.00121 -0.0154757 0)
(0.989918 -0.0182472 0)
(0.98699 -0.0065592 0)
(0.993382 0.000234489 0)
(0.996343 0.00123233 0)
(1.00138 0.00719872 0)
(1.00886 0.00789409 0)
(1.01252 0.00727442 0)
(1.00909 0.00573788 0)
(1.00561 0.00480657 0)
(1.00232 0.00495113 0)
(0.999291 0.00636934 0)
(0.995689 0.00877637 0)
(1.00035 0.00125934 0)
(1.01106 9.92532e-05 0)
(0.994819 -0.0238887 0)
(0.972955 -0.00806083 0)
(0.994443 0.0159263 0)
(1.02109 0.0108959 0)
(1.01859 -0.0110529 0)
(1.00056 -0.0151384 0)
(0.990829 -0.0176815 0)
(0.987437 -0.00670189 0)
(0.991852 5.30098e-05 0)
(0.993189 0.000996484 0)
(0.996788 0.0067878 0)
(1.00359 0.00769784 0)
(1.00765 0.00712049 0)
(1.0051 0.00595706 0)
(1.00283 0.00503383 0)
(1.00063 0.00533404 0)
(0.998665 0.00676057 0)
(0.995829 0.00902014 0)
(1.00033 0.0011624 0)
(1.00986 4.47381e-05 0)
(0.996796 -0.0232152 0)
(0.974126 -0.00811768 0)
(0.990964 0.0151496 0)
(1.01678 0.0105213 0)
(1.01655 -0.010598 0)
(0.999976 -0.0148378 0)
(0.991319 -0.0171243 0)
(0.987858 -0.00679544 0)
(0.991201 -7.67287e-05 0)
(0.991484 0.000845163 0)
(0.994005 0.00641543 0)
(1.00006 0.00752111 0)
(1.00418 0.00693222 0)
(1.00207 0.00609814 0)
(1.00062 0.00521305 0)
(0.999275 0.00560648 0)
(0.998208 0.00708165 0)
(0.996099 0.00919151 0)
(1.00041 0.00107693 0)
(1.0088 -3.65272e-05 0)
(0.998023 -0.0225395 0)
(0.9753 -0.00810867 0)
(0.988961 0.0144293 0)
(1.01382 0.0100997 0)
(1.01513 -0.0101944 0)
(0.99955 -0.0145532 0)
(0.991584 -0.0165748 0)
(0.988172 -0.00685885 0)
(0.990928 -0.000185837 0)
(0.990601 0.000756187 0)
(0.992437 0.00607498 0)
(0.997878 0.00736342 0)
(1.00192 0.00673899 0)
(0.999995 0.00617946 0)
(0.999084 0.00536378 0)
(0.998382 0.00578974 0)
(0.997998 0.00732474 0)
(0.996478 0.00930628 0)
(1.00052 0.00100072 0)
(1.00795 -0.000136461 0)
(0.998712 -0.0218612 0)
(0.976351 -0.00805936 0)
(0.987903 0.0137472 0)
(1.01183 0.00964516 0)
(1.01411 -0.0098298 0)
(0.999282 -0.01427 0)
(0.991759 -0.0160284 0)
(0.988423 -0.00689941 0)
(0.990785 -0.000290617 0)
(0.990142 0.000708924 0)
(0.991611 0.0057548 0)
(0.99662 0.00721408 0)
(1.00058 0.00655301 0)
(0.998747 0.00621749 0)
(0.998173 0.00550229 0)
(0.997946 0.00590935 0)
(0.998041 0.00748951 0)
(0.996946 0.00937855 0)
(1.00062 0.000931256 0)
(1.00731 -0.000248762 0)
(0.999028 -0.0211773 0)
(0.977275 -0.0079879 0)
(0.987458 0.013092 0)
(1.01054 0.00916841 0)
(1.01335 -0.00949349 0)
(0.999138 -0.0139783 0)
(0.991909 -0.0154833 0)
(0.988677 -0.0069194 0)
(0.990694 -0.000394213 0)
(0.989911 0.000684929 0)
(0.991212 0.00544508 0)
(0.995954 0.00706154 0)
(0.999844 0.00637526 0)
(0.998106 0.00622205 0)
(0.997728 0.00563509 0)
(0.997868 0.00599098 0)
(0.998279 0.0075838 0)
(0.997468 0.00941522 0)
(1.00067 0.000866425 0)
(1.00685 -0.000369115 0)
(0.999106 -0.0204861 0)
(0.978118 -0.00790583 0)
(0.987393 0.0124511 0)
(1.00972 0.00867582 0)
(1.01272 -0.00917994 0)
(0.999078 -0.0136744 0)
(0.992054 -0.0149394 0)
(0.988982 -0.00691706 0)
(0.990646 -0.000504543 0)
(0.989824 0.000670671 0)
(0.991053 0.00514073 0)
(0.995645 0.00689783 0)
(0.99947 0.00620407 0)
(0.997856 0.00619585 0)
(0.997575 0.00575592 0)
(0.998013 0.00605473 0)
(0.998622 0.00762458 0)
(0.997996 0.00942209 0)
(1.00066 0.000805017 0)
(1.00652 -0.000495076 0)
(0.999043 -0.0197878 0)
(0.978928 -0.0078192 0)
(0.987538 0.0118153 0)
(1.00918 0.00817368 0)
(1.01215 -0.00888464 0)
(0.999066 -0.0133556 0)
(0.992194 -0.0143978 0)
(0.989352 -0.00689582 0)
(0.99065 -0.00061974 0)
(0.98985 0.000658621 0)
(0.991032 0.0048404 0)
(0.995545 0.00671943 0)
(0.999283 0.00603776 0)
(0.997824 0.00614218 0)
(0.99757 0.00586065 0)
(0.998262 0.00610925 0)
(0.998994 0.00763132 0)
(0.99849 0.00941175 0)
(1.0006 0.000746176 0)
(1.00629 -0.000624779 0)
(0.998909 -0.0190824 0)
(0.979743 -0.00773212 0)
(0.987781 0.0111802 0)
(1.0088 0.00766556 0)
(1.01158 -0.00860307 0)
(0.999074 -0.0130226 0)
(0.99233 -0.0138581 0)
(0.989784 -0.00686411 0)
(0.990709 -0.00073453 0)
(0.989968 0.000643462 0)
(0.991097 0.00454378 0)
(0.99556 0.00652603 0)
(0.999182 0.00587676 0)
(0.99789 0.00606431 0)
(0.997617 0.00595385 0)
(0.99853 0.00615548 0)
(0.999346 0.00760689 0)
(0.998922 0.00939592 0)
(1.0005 0.000688944 0)
(1.00611 -0.000756887 0)
(0.998743 -0.0183706 0)
(0.980581 -0.00764415 0)
(0.988063 0.0105421 0)
(1.00848 0.00715771 0)
(1.011 -0.00833603 0)
(0.999079 -0.0126719 0)
(0.992462 -0.0133215 0)
(0.990263 -0.0068158 0)
(0.990826 -0.000846167 0)
(0.990158 0.000626655 0)
(0.991221 0.00425058 0)
(0.995635 0.00631762 0)
(0.999111 0.00572578 0)
(0.997985 0.00596725 0)
(0.997662 0.00603501 0)
(0.998768 0.00619905 0)
(0.999659 0.00754407 0)
(0.999289 0.00936931 0)
(1.00038 0.000634267 0)
(1.00596 -0.00089023 0)
(0.998574 -0.0176553 0)
(0.981439 -0.00755334 0)
(0.988361 0.00990155 0)
(1.00817 0.00665198 0)
(1.01041 -0.00808444 0)
(0.999068 -0.0123048 0)
(0.992595 -0.0127866 0)
(0.990769 -0.00675347 0)
(0.990996 -0.00095567 0)
(0.990396 0.000611645 0)
(0.99139 0.00396284 0)
(0.995738 0.00609195 0)
(0.999049 0.00558552 0)
(0.998073 0.00586161 0)
(0.99769 0.00609976 0)
(0.998953 0.00624673 0)
(0.99993 0.00744952 0)
(0.999603 0.00930413 0)
(1.00024 0.000581048 0)
(1.00581 -0.00102279 0)
(0.998417 -0.0169394 0)
(0.982304 -0.00745717 0)
(0.988672 0.00925878 0)
(1.00786 0.00615093 0)
(1.00982 -0.00784594 0)
(0.999034 -0.0119315 0)
(0.992734 -0.0122533 0)
(0.99128 -0.00668997 0)
(0.991214 -0.00107097 0)
(0.990658 0.00059668 0)
(0.991593 0.00368394 0)
(0.995851 0.0058485 0)
(0.998993 0.00544856 0)
(0.998142 0.00574762 0)
(0.9977 0.00614815 0)
(0.999083 0.00630386 0)
(1.00017 0.00733972 0)
(0.999887 0.00917068 0)
(1.00012 0.000529787 0)
(1.00565 -0.00115441 0)
(0.998282 -0.016228 0)
(0.983159 -0.00735515 0)
(0.989003 0.00861346 0)
(1.00752 0.00565594 0)
(1.00925 -0.00762195 0)
(0.998978 -0.0115568 0)
(0.992883 -0.0117237 0)
(0.99178 -0.00661768 0)
(0.99147 -0.00118624 0)
(0.990924 0.000582768 0)
(0.99182 0.0034183 0)
(0.995965 0.00559304 0)
(0.998944 0.0053146 0)
(0.998193 0.00561834 0)
(0.997705 0.00617121 0)
(0.999165 0.006376 0)
(1.00037 0.00723871 0)
(1.00016 0.00896572 0)
(1.00002 0.000481003 0)
(1.00546 -0.00128465 0)
(0.998174 -0.0155242 0)
(0.983992 -0.00724505 0)
(0.989357 0.00796912 0)
(1.00716 0.0051676 0)
(1.0087 -0.00740473 0)
(0.998903 -0.0111799 0)
(0.993044 -0.0112002 0)
(0.992261 -0.00653158 0)
(0.991756 -0.00130131 0)
(0.991184 0.000572023 0)
(0.99206 0.00317218 0)
(0.996078 0.00533286 0)
(0.998905 0.00519184 0)
(0.998232 0.00548488 0)
(0.997718 0.00615394 0)
(0.999215 0.00644753 0)
(1.00054 0.00717578 0)
(1.00042 0.00872262 0)
(0.999941 0.000433606 0)
(1.00524 -0.00141064 0)
(0.998094 -0.0148311 0)
(0.984795 -0.00712652 0)
(0.989733 0.00732582 0)
(1.00677 0.004684 0)
(1.00817 -0.00719226 0)
(0.998814 -0.0107996 0)
(0.993215 -0.0106838 0)
(0.992719 -0.00643667 0)
(0.992066 -0.00142017 0)
(0.991432 0.000560055 0)
(0.992306 0.00295018 0)
(0.99619 0.00506937 0)
(0.998875 0.00507883 0)
(0.998262 0.00536783 0)
(0.997741 0.0061048 0)
(0.999251 0.00648503 0)
(1.00069 0.00715042 0)
(1.00066 0.00849855 0)
(0.999892 0.0003889 0)
(1.00501 -0.00153052 0)
(0.998038 -0.0141501 0)
(0.98557 -0.0070011 0)
(0.990127 0.00668541 0)
(1.00637 0.00420641 0)
(1.00765 -0.00698499 0)
(0.998717 -0.0104281 0)
(0.993391 -0.0101788 0)
(0.993154 -0.00633257 0)
(0.992393 -0.00154207 0)
(0.991671 0.000540421 0)
(0.992549 0.00275058 0)
(0.996301 0.00480527 0)
(0.998855 0.00496369 0)
(0.998287 0.00526526 0)
(0.997771 0.00604928 0)
(0.999281 0.00648069 0)
(1.00081 0.00712074 0)
(1.00088 0.00832482 0)
(0.999863 0.000346487 0)
(1.00475 -0.00164245 0)
(0.998002 -0.0134834 0)
(0.986317 -0.00686763 0)
(0.990532 0.00605227 0)
(1.00596 0.00373549 0)
(1.00714 -0.00678303 0)
(0.998616 -0.0100616 0)
(0.993569 -0.0096889 0)
(0.993568 -0.00621844 0)
(0.992732 -0.00166397 0)
(0.991903 0.000511405 0)
(0.992785 0.00256494 0)
(0.996414 0.00454537 0)
(0.998842 0.0048461 0)
(0.998311 0.00516216 0)
(0.997806 0.00598886 0)
(0.999305 0.0064616 0)
(1.00092 0.00705533 0)
(1.00109 0.00816866 0)
(0.999848 0.000305738 0)
(1.00449 -0.00174485 0)
(0.99798 -0.0128325 0)
(0.987042 -0.00672883 0)
(0.990941 0.00542712 0)
(1.00554 0.00325969 0)
(1.00664 -0.00658583 0)
(0.998513 -0.00968866 0)
(0.993743 -0.00920978 0)
(0.993961 -0.0060857 0)
(0.993078 -0.00177651 0)
(0.992133 0.000482359 0)
(0.993012 0.00239452 0)
(0.99653 0.0042904 0)
(0.998837 0.00473539 0)
(0.998337 0.00506369 0)
(0.997846 0.00590422 0)
(0.999323 0.00644464 0)
(1.00102 0.00697566 0)
(1.00128 0.00798381 0)
(0.999841 0.000266831 0)
(1.00423 -0.00183788 0)
(0.997969 -0.0121989 0)
(0.987747 -0.00658756 0)
(0.99135 0.00481313 0)
(1.00513 0.0027922 0)
(1.00614 -0.00638843 0)
(0.998412 -0.00931681 0)
(0.993912 -0.00874404 0)
(0.994334 -0.00594315 0)
(0.993429 -0.0018886 0)
(0.992361 0.00044996 0)
(0.993227 0.00224291 0)
(0.99665 0.00403721 0)
(0.998839 0.004628 0)
(0.998362 0.00498528 0)
(0.997892 0.00579148 0)
(0.999341 0.0064066 0)
(1.00109 0.00691589 0)
(1.00145 0.00777092 0)
(0.999837 0.000231115 0)
(1.00397 -0.00192474 0)
(0.997966 -0.0115803 0)
(0.988435 -0.00644407 0)
(0.991754 0.00422488 0)
(1.00473 0.0023233 0)
(1.00566 -0.00620295 0)
(0.998313 -0.00894752 0)
(0.994073 -0.00830243 0)
(0.994685 -0.00579819 0)
(0.99378 -0.00199832 0)
(0.992592 0.000413563 0)
(0.993429 0.00210819 0)
(0.996774 0.00378365 0)
(0.998853 0.00451437 0)
(0.998383 0.00493218 0)
(0.99794 0.00567485 0)
(0.999364 0.0063198 0)
(1.00114 0.00687485 0)
(1.0016 0.00757173 0)
(0.999834 0.000197281 0)
(1.00371 -0.0020029 0)
(0.997968 -0.0109755 0)
(0.989106 -0.0063099 0)
(0.992149 0.00366127 0)
(1.00433 0.00185193 0)
(1.00518 -0.00602945 0)
(0.998217 -0.00857848 0)
(0.994225 -0.00787986 0)
(0.995015 -0.00564888 0)
(0.99413 -0.00210092 0)
(0.992823 0.000379537 0)
(0.993618 0.00199036 0)
(0.996901 0.00352749 0)
(0.998882 0.00438181 0)
(0.998402 0.00489313 0)
(0.997979 0.00557901 0)
(0.999395 0.00618913 0)
(1.00118 0.00681617 0)
(1.00172 0.00742039 0)
(0.999831 0.000167169 0)
(1.00346 -0.00207472 0)
(0.997974 -0.0103838 0)
(0.98976 -0.00618699 0)
(0.992536 0.00311593 0)
(1.00394 0.00140041 0)
(1.00472 -0.00587204 0)
(0.998124 -0.00820737 0)
(0.994367 -0.00746772 0)
(0.995322 -0.00549273 0)
(0.994478 -0.00220334 0)
(0.993057 0.000345393 0)
(0.993789 0.00189806 0)
(0.997027 0.00327768 0)
(0.99893 0.00422157 0)
(0.998426 0.00485256 0)
(0.998004 0.00550875 0)
(0.999426 0.00604215 0)
(1.00122 0.0067055 0)
(1.00181 0.00730862 0)
(0.999827 0.000140992 0)
(1.00322 -0.0021448 0)
(0.997983 -0.00979722 0)
(0.990396 -0.00606894 0)
(0.992913 0.00259811 0)
(1.00356 0.000962542 0)
(1.00427 -0.00574031 0)
(0.998036 -0.00783821 0)
(0.994498 -0.00706065 0)
(0.995605 -0.00532478 0)
(0.994824 -0.00230317 0)
(0.993296 0.000309158 0)
(0.993942 0.00183897 0)
(0.997143 0.0030481 0)
(0.998996 0.00403536 0)
(0.99846 0.00479982 0)
(0.998016 0.00545983 0)
(0.999446 0.00590589 0)
(1.00127 0.00654588 0)
(1.00187 0.00720655 0)
(0.999822 0.000118516 0)
(1.00299 -0.00221254 0)
(0.997993 -0.00921365 0)
(0.991012 -0.00596725 0)
(0.99328 0.00209603 0)
(1.00319 0.000550147 0)
(1.00383 -0.0056243 0)
(0.997954 -0.00747626 0)
(0.994616 -0.0066583 0)
(0.995862 -0.00515615 0)
(0.995167 -0.00240715 0)
(0.993543 0.000257217 0)
(0.994078 0.00180438 0)
(0.997243 0.0028415 0)
(0.999076 0.00382403 0)
(0.998509 0.0047249 0)
(0.998018 0.00542361 0)
(0.999445 0.00578858 0)
(1.00132 0.00635531 0)
(1.00193 0.00708184 0)
(0.999815 0.000101111 0)
(1.00276 -0.00227998 0)
(0.998004 -0.0086357 0)
(0.991606 -0.00587457 0)
(0.993638 0.00160715 0)
(1.00283 0.000162091 0)
(1.00341 -0.00553432 0)
(0.997879 -0.00713526 0)
(0.994721 -0.0062641 0)
(0.996089 -0.00497634 0)
(0.995505 -0.00250466 0)
(0.993805 0.000191193 0)
(0.9942 0.00179278 0)
(0.997321 0.0026684 0)
(0.999168 0.00359369 0)
(0.99858 0.00462066 0)
(0.998013 0.0053957 0)
(0.999418 0.00568949 0)
(1.00136 0.00614461 0)
(1.00199 0.00690614 0)
(0.999807 8.77051e-05 0)
(1.00255 -0.00234717 0)
(0.998017 -0.00806352 0)
(0.992176 -0.00578243 0)
(0.993986 0.00113381 0)
(1.00248 -0.000185954 0)
(1.00301 -0.00546076 0)
(0.997816 -0.00682527 0)
(0.994816 -0.00587893 0)
(0.996285 -0.00477394 0)
(0.995835 -0.0025993 0)
(0.994084 0.000100175 0)
(0.994314 0.00179385 0)
(0.99737 0.00253463 0)
(0.999262 0.00335334 0)
(0.998675 0.00447681 0)
(0.998007 0.00537129 0)
(0.999357 0.00561961 0)
(1.00139 0.00593291 0)
(1.00207 0.00667141 0)
(0.999798 8.03056e-05 0)
(1.00235 -0.0024236 0)
(0.998032 -0.00749717 0)
(0.992719 -0.00568417 0)
(0.994327 0.000661125 0)
(1.00214 -0.000484682 0)
(1.00262 -0.00538872 0)
(0.997764 -0.00653633 0)
(0.994904 -0.00550472 0)
(0.996447 -0.00454891 0)
(0.996149 -0.00267819 0)
(0.994385 -1.91329e-05 0)
(0.994428 0.00179383 0)
(0.997389 0.00244448 0)
(0.999349 0.00311929 0)
(0.998799 0.00428584 0)
(0.998013 0.00532894 0)
(0.999262 0.00558166 0)
(1.00138 0.0057438 0)
(1.00216 0.0063856 0)
(0.999788 7.68656e-05 0)
(1.00216 -0.0024988 0)
(0.99805 -0.00695706 0)
(0.993232 -0.00556223 0)
(0.994662 0.000179788 0)
(1.00181 -0.000757554 0)
(1.00224 -0.00531535 0)
(0.99773 -0.00627299 0)
(0.994991 -0.00514111 0)
(0.996578 -0.00430649 0)
(0.996442 -0.00272306 0)
(0.994703 -0.000158376 0)
(0.994552 0.00177378 0)
(0.997377 0.00239144 0)
(0.999418 0.00291022 0)
(0.998948 0.00405286 0)
(0.998042 0.00524478 0)
(0.999139 0.0055585 0)
(1.00132 0.00559657 0)
(1.00225 0.00607464 0)
(0.999778 7.59739e-05 0)
(1.00199 -0.00256951 0)
(0.998073 -0.00644907 0)
(0.993713 -0.00540906 0)
(0.99499 -0.0003014 0)
(1.00151 -0.00101064 0)
(1.00189 -0.00522121 0)
(0.997713 -0.00605602 0)
(0.995081 -0.00480373 0)
(0.996681 -0.00404508 0)
(0.99671 -0.00273829 0)
(0.995033 -0.000308107 0)
(0.994693 0.00172069 0)
(0.997343 0.00235145 0)
(0.999459 0.00273578 0)
(0.999115 0.00379764 0)
(0.998105 0.00511524 0)
(0.999003 0.00553359 0)
(1.00119 0.00549814 0)
(1.00231 0.00578252 0)
(0.999768 7.84193e-05 0)
(1.00184 -0.00263655 0)
(0.998107 -0.0059837 0)
(0.994163 -0.00520337 0)
(0.99531 -0.000777308 0)
(1.00122 -0.00124564 0)
(1.00154 -0.00509512 0)
(0.997703 -0.005867 0)
(0.995176 -0.0045023 0)
(0.996757 -0.00376755 0)
(0.996949 -0.00271695 0)
(0.995374 -0.000458323 0)
(0.994856 0.0016391 0)
(0.997299 0.00231062 0)
(0.999472 0.00259282 0)
(0.999293 0.00353454 0)
(0.99821 0.00493799 0)
(0.998873 0.00548947 0)
(1.00101 0.00542737 0)
(1.00232 0.00553829 0)
(0.999758 8.09564e-05 0)
(1.0017 -0.00269084 0)
(0.998154 -0.00557091 0)
(0.994578 -0.00494541 0)
(0.995619 -0.00123571 0)
(1.00097 -0.001471 0)
(1.00121 -0.00491136 0)
(0.997709 -0.00568062 0)
(0.995286 -0.0042589 0)
(0.996817 -0.00349972 0)
(0.997158 -0.00266358 0)
(0.995716 -0.000615375 0)
(0.995039 0.00151869 0)
(0.997247 0.00225832 0)
(0.999452 0.00247159 0)
(0.999468 0.00326953 0)
(0.998356 0.00470488 0)
(0.99876 0.00541231 0)
(1.00079 0.00536112 0)
(1.00225 0.00534903 0)
(0.999749 8.12022e-05 0)
(1.00157 -0.00273073 0)
(0.998216 -0.00521121 0)
(0.994959 -0.00465725 0)
(0.995913 -0.00164105 0)
(1.00075 -0.0017054 0)
(1.00089 -0.00469782 0)
(0.997721 -0.00549546 0)
(0.995414 -0.00406871 0)
(0.996868 -0.00325214 0)
(0.997335 -0.00256398 0)
(0.996054 -0.000751833 0)
(0.995244 0.00136977 0)
(0.997199 0.00219147 0)
(0.999402 0.00237003 0)
(0.99963 0.00301851 0)
(0.998544 0.00442035 0)
(0.998683 0.00529306 0)
(1.00055 0.0052965 0)
(1.00211 0.00520881 0)
(0.999742 7.94135e-05 0)
(1.00146 -0.00274949 0)
(0.998298 -0.00491452 0)
(0.99531 -0.00434344 0)
(0.996186 -0.00198743 0)
(1.00057 -0.00196585 0)
(1.0006 -0.00447249 0)
(0.997737 -0.00527425 0)
(0.995558 -0.00391626 0)
(0.99692 -0.00303675 0)
(0.997486 -0.00243149 0)
(0.99638 -0.000858619 0)
(0.99547 0.00120656 0)
(0.99716 0.00211025 0)
(0.999327 0.0022872 0)
(0.999767 0.00279952 0)
(0.998768 0.00410623 0)
(0.998657 0.00511866 0)
(1.0003 0.00522584 0)
(1.00191 0.00509605 0)
(0.999736 7.08551e-05 0)
(1.00136 -0.00273858 0)
(0.998401 -0.00467185 0)
(0.995635 -0.00402517 0)
(0.996434 -0.00225897 0)
(1.00043 -0.00225398 0)
(1.00035 -0.00425148 0)
(0.997751 -0.00499837 0)
(0.995713 -0.0037772 0)
(0.996982 -0.00286004 0)
(0.997613 -0.00230131 0)
(0.996691 -0.000938214 0)
(0.995717 0.00103933 0)
(0.99714 0.0020153 0)
(0.999234 0.00221342 0)
(0.999871 0.00261378 0)
(0.999009 0.00378892 0)
(0.998691 0.00488856 0)
(1.00007 0.00513245 0)
(1.00167 0.00499107 0)
(0.999733 5.38086e-05 0)
(1.00126 -0.00269595 0)
(0.998524 -0.00447954 0)
(0.995943 -0.00372136 0)
(0.99665 -0.00244184 0)
(1.00033 -0.00253742 0)
(1.00015 -0.00406836 0)
(0.99777 -0.00467991 0)
(0.99587 -0.00361913 0)
(0.997052 -0.0027242 0)
(0.997726 -0.00217163 0)
(0.996988 -0.000988294 0)
(0.995982 0.000883437 0)
(0.997144 0.00191709 0)
(0.999133 0.00214428 0)
(0.999942 0.00245049 0)
(0.999254 0.00348099 0)
(0.998784 0.00461396 0)
(0.999875 0.00500527 0)
(1.00142 0.00488059 0)
(0.999733 2.78698e-05 0)
(1.00117 -0.00262381 0)
(0.998666 -0.00433551 0)
(0.996239 -0.00344596 0)
(0.996835 -0.0025337 0)
(1.00026 -0.00279722 0)
(0.999999 -0.0039381 0)
(0.997797 -0.00433519 0)
(0.996021 -0.00343087 0)
(0.997133 -0.00261137 0)
(0.997833 -0.002057 0)
(0.997269 -0.00102022 0)
(0.996265 0.000730587 0)
(0.997174 0.00181692 0)
(0.999027 0.00208763 0)
(0.999981 0.00231399 0)
(0.999494 0.00319139 0)
(0.998931 0.00430916 0)
(0.999728 0.00484543 0)
(1.00116 0.00475851 0)
(0.999735 -7.32285e-06 0)
(1.00109 -0.00251712 0)
(0.998823 -0.00422969 0)
(0.996532 -0.00322215 0)
(0.996987 -0.00252651 0)
(1.0002 -0.00301122 0)
(0.999907 -0.00387512 0)
(0.997845 -0.00400059 0)
(0.996162 -0.00319756 0)
(0.997216 -0.00248987 0)
(0.997937 -0.00196603 0)
(0.997537 -0.00103583 0)
(0.996563 0.000577199 0)
(0.997241 0.00169964 0)
(0.998927 0.00203495 0)
(0.999986 0.00220634 0)
(0.999715 0.00292696 0)
(0.999127 0.00397816 0)
(0.999638 0.00464857 0)
(1.00091 0.00462693 0)
(0.999741 -5.27999e-05 0)
(1.001 -0.00237962 0)
(0.998986 -0.00413857 0)
(0.996833 -0.00306166 0)
(0.997114 -0.00244449 0)
(1.00014 -0.00315076 0)
(0.99987 -0.00387269 0)
(0.997928 -0.00370387 0)
(0.996297 -0.00292419 0)
(0.997294 -0.00235525 0)
(0.998039 -0.00188291 0)
(0.997793 -0.00104806 0)
(0.996869 0.000435875 0)
(0.997344 0.00156991 0)
(0.998844 0.00198123 0)
(0.999965 0.00212918 0)
(0.999904 0.00270862 0)
(0.999359 0.00363896 0)
(0.999619 0.00440575 0)
(1.00069 0.0044838 0)
(0.999748 -0.000106085 0)
(1.00091 -0.00222536 0)
(0.999149 -0.00404855 0)
(0.997143 -0.00296227 0)
(0.997224 -0.00232024 0)
(1.00007 -0.00319602 0)
(0.999877 -0.00391069 0)
(0.998058 -0.00348214 0)
(0.99643 -0.00263351 0)
(0.997358 -0.0021865 0)
(0.998135 -0.00179455 0)
(0.99804 -0.00106393 0)
(0.997185 0.000299736 0)
(0.997485 0.0014305 0)
(0.998788 0.0019135 0)
(0.999927 0.00206292 0)
(1.00005 0.00254045 0)
(0.9996 0.00332373 0)
(0.999672 0.00412284 0)
(1.00051 0.00431816 0)
(0.999759 -0.000166381 0)
(1.00081 -0.00205617 0)
(0.999303 -0.0039509 0)
(0.997466 -0.0029149 0)
(0.99733 -0.00218546 0)
(0.999979 -0.00312046 0)
(0.999908 -0.00393379 0)
(0.998242 -0.00336819 0)
(0.996578 -0.00236966 0)
(0.997405 -0.00198061 0)
(0.998213 -0.00168994 0)
(0.99827 -0.00106685 0)
(0.997503 0.000163743 0)
(0.997658 0.00128288 0)
(0.998762 0.00183423 0)
(0.999887 0.0019918 0)
(1.00016 0.00240294 0)
(0.99983 0.00305343 0)
(0.999783 0.00382441 0)
(1.00039 0.00411604 0)
(0.999771 -0.00022891 0)
(1.00072 -0.00188495 0)
(0.99944 -0.00382444 0)
(0.997799 -0.00290624 0)
(0.997446 -0.00206544 0)
(0.999868 -0.00295722 0)
(0.999932 -0.00388957 0)
(0.99847 -0.00334016 0)
(0.99676 -0.00216974 0)
(0.997444 -0.00175804 0)
(0.99827 -0.00156208 0)
(0.998479 -0.00105446 0)
(0.997821 3.66974e-05 0)
(0.997867 0.00112022 0)
(0.998767 0.00174864 0)
(0.999847 0.0019242 0)
(1.00024 0.00228159 0)
(1.00004 0.00282699 0)
(0.999924 0.00354299 0)
(1.00033 0.00388492 0)
(0.999785 -0.000287061 0)
(1.00062 -0.0017245 0)
(0.999554 -0.00366168 0)
(0.998135 -0.00292412 0)
(0.997579 -0.00197404 0)
(0.999745 -0.00276171 0)
(0.999935 -0.00376044 0)
(0.998725 -0.00335244 0)
(0.996989 -0.00205946 0)
(0.997486 -0.00154022 0)
(0.998299 -0.00140193 0)
(0.998657 -0.00102039 0)
(0.998125 -5.94862e-05 0)
(0.998104 0.000942342 0)
(0.998811 0.00163607 0)
(0.999813 0.00185497 0)
(1.0003 0.00216706 0)
(1.00022 0.00261686 0)
(1.00008 0.00327888 0)
(1.00033 0.00363929 0)
(0.999798 -0.000338433 0)
(1.00053 -0.00157515 0)
(0.999641 -0.00345874 0)
(0.998466 -0.00295341 0)
(0.997735 -0.00193218 0)
(0.999622 -0.00255647 0)
(0.999904 -0.00355028 0)
(0.998976 -0.00334208 0)
(0.997266 -0.00204209 0)
(0.997554 -0.00136502 0)
(0.998307 -0.00122142 0)
(0.998801 -0.000961397 0)
(0.998402 -0.000132442 0)
(0.998351 0.000775945 0)
(0.998895 0.00149802 0)
(0.999793 0.00177452 0)
(1.00033 0.00206912 0)
(1.00038 0.00242232 0)
(1.00024 0.00302563 0)
(1.00036 0.0033981 0)
(0.999811 -0.00037922 0)
(1.00045 -0.00144837 0)
(0.999697 -0.0032085 0)
(0.998778 -0.00296962 0)
(0.997915 -0.00193993 0)
(0.999514 -0.00236221 0)
(0.999844 -0.00329446 0)
(0.999199 -0.00327209 0)
(0.997575 -0.00207673 0)
(0.997661 -0.00125418 0)
(0.998301 -0.00104068 0)
(0.998902 -0.000874093 0)
(0.998648 -0.000187856 0)
(0.998599 0.000630309 0)
(0.99901 0.00134843 0)
(0.999799 0.0016667 0)
(1.00034 0.00197817 0)
(1.0005 0.00225682 0)
(1.00041 0.00278352 0)
(1.00041 0.00316977 0)
(0.999822 -0.000406889 0)
(1.00037 -0.00134569 0)
(0.999727 -0.00293402 0)
(0.999059 -0.00295022 0)
(0.998115 -0.00198609 0)
(0.999429 -0.00219332 0)
(0.99976 -0.0030242 0)
(0.99938 -0.00314284 0)
(0.997893 -0.00211647 0)
(0.997814 -0.00121522 0)
(0.998301 -0.000884928 0)
(0.998963 -0.000760891 0)
(0.998853 -0.00020934 0)
(0.998836 0.000501245 0)
(0.99914 0.00120611 0)
(0.999829 0.00154201 0)
(1.00036 0.00187306 0)
(1.00058 0.00211979 0)
(1.00056 0.00255426 0)
(1.00048 0.00294099 0)
(0.999832 -0.000419608 0)
(1.00032 -0.00126643 0)
(0.999736 -0.00266912 0)
(0.999298 -0.00288175 0)
(0.998328 -0.00204833 0)
(0.999377 -0.00206168 0)
(0.999665 -0.00274991 0)
(0.999515 -0.00295796 0)
(0.998198 -0.00212758 0)
(0.998006 -0.00122576 0)
(0.998324 -0.00077257 0)
(0.998995 -0.000646691 0)
(0.99901 -0.000196326 0)
(0.999056 0.000393149 0)
(0.999281 0.00106961 0)
(0.999874 0.00142213 0)
(1.00038 0.00175001 0)
(1.00064 0.00199554 0)
(1.00068 0.00235041 0)
(1.00057 0.00270488 0)
(0.99984 -0.000422087 0)
(1.00027 -0.00120553 0)
(0.999732 -0.00241977 0)
(0.999498 -0.00276225 0)
(0.998543 -0.0020974 0)
(0.999362 -0.00197185 0)
(0.999573 -0.00249212 0)
(0.999604 -0.00274053 0)
(0.998473 -0.00209857 0)
(0.998224 -0.00125449 0)
(0.998377 -0.000705418 0)
(0.999017 -0.00054414 0)
(0.999124 -0.000160907 0)
(0.999242 0.000322193 0)
(0.999428 0.000935433 0)
(0.999928 0.00130573 0)
(1.0004 0.00162407 0)
(1.00068 0.00186353 0)