/*--------------------------------*- C++ -*----------------------------------*\
| =========                 |                                                 |
| \\      /  F ield         | OpenFOAM: The Open Source CFD Toolbox           |
|  \\    /   O peration     | Version:  3.0.1                                 |
|   \\  /    A nd           | Web:      www.OpenFOAM.org                      |
|    \\/     M anipulation  |                                                 |
\*---------------------------------------------------------------------------*/
FoamFile
{
    version     2.0;
    format      ascii;
    class       volScalarField;
    location    "1.9";
    object      p;
}
// * * * * * * * * * * * * * * * * * * * * * * * * * * * * * * * * * * * * * //

dimensions      [0 2 -2 0 0 0 0];

internalField   nonuniform List<scalar> 
9600
(
-1.31883e-10
0.00153986
0.00211457
0.00134505
-0.000366262
0.000557357
0.00105054
0.000760227
0.00129827
0.00125341
0.000798092
0.000107281
0.000296955
0.000443211
-0.00065113
0.00015424
-0.000851733
0.00137456
0.00220243
0.00410193
1.64548e-06
0.0015406
0.00210946
0.00134063
-0.000353003
0.000562055
0.00104261
0.000759369
0.0012939
0.00124297
0.000822162
9.85175e-05
0.000317231
0.000433059
-0.000637651
0.000142062
-0.000770655
0.00132944
0.00222454
0.00391155
4.26217e-06
0.00154088
0.00210324
0.00133698
-0.000338819
0.000563586
0.00103411
0.000758275
0.00128356
0.00123511
0.000837843
8.6371e-05
0.000336355
0.00041968
-0.000613398
0.000120432
-0.000685653
0.00126237
0.00223994
0.00365987
7.93944e-06
0.00154183
0.00209627
0.00133356
-0.000324579
0.000562238
0.00102869
0.000757006
0.00127023
0.00123053
0.000847699
7.11056e-05
0.000355153
0.000405881
-0.000582176
9.37683e-05
-0.000609377
0.00119359
0.00223403
0.0034145
1.33823e-05
0.0015434
0.00208725
0.00133043
-0.00030854
0.000558333
0.00102679
0.000755087
0.00125469
0.00122795
0.000854817
5.42352e-05
0.000375627
0.000391992
-0.000546194
6.31258e-05
-0.000533747
0.00112725
0.00220443
0.00318636
2.08434e-05
0.00154485
0.00207606
0.00132808
-0.000290046
0.000552732
0.00102841
0.000752377
0.00123802
0.00122681
0.000861186
3.70709e-05
0.000397483
0.000377857
-0.000507348
3.1602e-05
-0.000458666
0.00106363
0.0021529
0.00297839
3.00839e-05
0.00154577
0.00206332
0.00132646
-0.000269128
0.000546861
0.00103362
0.000749444
0.00122132
0.00122628
0.000867943
1.99624e-05
0.000420082
0.000363822
-0.000467226
2.87517e-06
-0.00038847
0.00100306
0.00208385
0.00278664
4.0687e-05
0.00154616
0.00204962
0.0013253
-0.000245986
0.000541983
0.0010422
0.000746926
0.00120486
0.00122556
0.000875666
2.84523e-06
0.000443214
0.00035018
-0.000426815
-2.08418e-05
-0.000326428
0.00094912
0.0020006
0.00260392
5.22627e-05
0.00154611
0.00203547
0.00132439
-0.000220857
0.000538672
0.00105352
0.000745125
0.00118849
0.00122417
0.000884471
-1.43366e-05
0.000466586
0.000337327
-0.000386851
-3.87316e-05
-0.000273568
0.000904638
0.00190333
0.00242399
6.4537e-05
0.00154578
0.00202116
0.00132357
-0.000194006
0.000536894
0.0010668
0.000744069
0.00117212
0.00122185
0.000894217
-3.15988e-05
0.000489873
0.000325979
-0.000348814
-5.00723e-05
-0.000230221
0.000869603
0.00179245
0.00224353
7.73642e-05
0.00154527
0.00200682
0.00132269
-0.000165665
0.000536303
0.00108131
0.000743644
0.00115575
0.00121853
0.000904634
-4.88479e-05
0.000512725
0.000317021
-0.00031435
-5.40786e-05
-0.000197197
0.000841875
0.00167124
0.00206031
9.06917e-05
0.00154465
0.00199251
0.0013216
-0.000136025
0.000536519
0.00109647
0.000743683
0.00113946
0.00121427
0.000915382
-6.58373e-05
0.000534628
0.000311357
-0.000284643
-5.07386e-05
-0.000177685
0.000818967
0.00154471
0.00187178
0.000104515
0.00154392
0.00197824
0.00132021
-0.000105242
0.000537224
0.00111185
0.000744034
0.00112335
0.00120921
0.000926109
-8.22e-05
0.000554906
0.000309858
-0.000260643
-4.04319e-05
-0.000195757
0.000797304
0.00141798
0.00167608
0.000118852
0.00154304
0.00196406
0.00131844
-7.33857e-05
0.000538204
0.00112719
0.000744589
0.00110751
0.00120358
0.000936441
-9.74754e-05
0.000572791
0.000313389
-0.000243175
-2.33396e-05
-0.000203949
0.000771696
0.00129561
0.00147325
0.00013373
0.00154198
0.00195
0.00131624
-4.04583e-05
0.000539345
0.00114229
0.000745309
0.00109194
0.00119768
0.00094594
-0.00011111
0.00058756
0.000322557
-0.000232886
-7.60092e-07
-0.000214894
0.000737038
0.00118115
0.00126528
0.000149188
0.00154069
0.00193615
0.00131356
-6.46715e-06
0.000540597
0.00115702
0.000746228
0.00107662
0.00119186
0.000954115
-0.000122532
0.000598556
0.000337638
-0.000229722
2.49121e-05
-0.000227552
0.000689478
0.00107623
0.00105581
0.00016527
0.00153909
0.00192257
0.0013104
2.85745e-05
0.000541971
0.00117131
0.000747435
0.00106139
0.00118649
0.000960533
-0.000131328
0.000605205
0.000358714
-0.000232921
5.09487e-05
-0.000240221
0.00062635
0.000980356
0.000849621
0.000182029
0.00153713
0.00190934
0.00130675
6.46465e-05
0.000543514
0.00118505
0.000749062
0.00104604
0.001182
0.000964851
-0.000137251
0.000607134
0.000385514
-0.000241328
7.43803e-05
-0.000250975
0.000546444
0.000891663
0.000651847
0.000199524
0.00153472
0.00189653
0.0013026
0.00010171
0.000545304
0.00119811
0.000751312
0.00103027
0.00117875
0.000966796
-0.000140196
0.000604224
0.000417268
-0.000253201
9.18728e-05
-0.000258094
0.00045111
0.000807188
0.000467476
0.000217817
0.00153178
0.00188421
0.00129798
0.000139688
0.00054743
0.00121032
0.000754463
0.00101376
0.00117701
0.000966222
-0.000140351
0.000596887
0.000452637
-0.000266781
0.000100639
-0.000260878
0.000343518
0.000723454
0.000301066
0.000236974
0.00152823
0.00187245
0.00129295
0.000178482
0.000550039
0.00122149
0.000758783
0.000996225
0.00117697
0.000963168
-0.000138179
0.000585893
0.000490041
-0.00028058
9.89163e-05
-0.000259436
0.00022718
0.000636721
0.000156148
0.000257063
0.00152398
0.00186127
0.00128757
0.000217972
0.000553388
0.00123131
0.000764533
0.000977469
0.00117867
0.000958049
-0.000134371
0.000571942
0.00052816
-0.000293653
8.56866e-05
-0.000254573
0.000105592
0.000543209
3.44629e-05
0.000278149
0.00151897
0.00185069
0.00128194
0.000257981
0.000557748
0.00123952
0.000771955
0.000957399
0.00118192
0.00095166
-0.000129797
0.000555628
0.000565995
-0.000305513
6.06957e-05
-0.000246833
-1.76294e-05
0.000439874
-6.43785e-05
0.000300304
0.00151315
0.00184067
0.00127621
0.000298266
0.000563334
0.00124589
0.000781205
0.000936062
0.00118635
0.000944954
-0.000125271
0.000537229
0.000602687
-0.000315393
2.3934e-05
-0.000238016
-0.000138705
0.000325369
-0.000142737
0.000323597
0.00150652
0.00183114
0.00127061
0.000338572
0.000570368
0.00125027
0.000792358
0.000913724
0.00119116
0.000938806
-0.000121323
0.000516721
0.000637441
-0.000322858
-2.43281e-05
-0.000229791
-0.00025381
0.000199898
-0.000204149
0.00034808
0.00149904
0.00182201
0.0012654
0.000378688
0.000579089
0.00125257
0.000805341
0.000890797
0.00119527
0.000933805
-0.000118215
0.000494051
0.000669592
-0.000327912
-8.34897e-05
-0.000223286
-0.000359367
6.3761e-05
-0.000252712
0.000373772
0.00149078
0.00181314
0.00126076
0.000418423
0.000589668
0.00125284
0.000819936
0.000867712
0.00119789
0.000930418
-0.000116056
0.000468946
0.000698773
-0.000330363
-0.000153128
-0.000219737
-0.000451545
-8.31486e-05
-0.000294189
0.00040069
0.00148188
0.00180436
0.00125688
0.00045758
0.000602158
0.00125128
0.000835838
0.000844922
0.00119848
0.000929048
-0.000114784
0.000440683
0.000724633
-0.000329656
-0.000232713
-0.000221085
-0.000525847
-0.000239397
-0.000337715
0.000428844
0.00147252
0.00179546
0.00125394
0.000496067
0.000616442
0.0012483
0.000852736
0.000822789
0.00119672
0.000929831
-0.000114328
0.000408361
0.000746306
-0.000325056
-0.000320725
-0.000230425
-0.000578282
-0.000399394
-0.000394955
0.000458208
0.00146296
0.0017862
0.001252
0.000534002
0.000632267
0.00124419
0.000870439
0.000801627
0.00119235
0.000932865
-0.000114417
0.000371088
0.000762623
-0.000315818
-0.000414572
-0.000251041
-0.000607691
-0.000553003
-0.000475974
0.000488712
0.00145344
0.00177648
0.001251
0.000571521
0.000649381
0.0012392
0.000888859
0.000781728
0.00118567
0.000938035
-0.00011431
0.000328029
0.000772428
-0.00030102
-0.00051101
-0.000285605
-0.000617399
-0.000688959
-0.000583402
0.000520275
0.00144421
0.00176635
0.00125079
0.000608823
0.000667645
0.00123354
0.000908031
0.000763238
0.00117741
0.000944827
-0.000113224
0.000278542
0.000774471
-0.000279552
-0.000606445
-0.000335711
-0.000614057
-0.000798959
-0.000710068
0.0005528
0.00143548
0.00175595
0.00125102
0.000646235
0.000687087
0.00122716
0.000928048
0.000746277
0.00116647
0.000952594
-0.000110299
0.000222375
0.00076741
-0.000250474
-0.000697609
-0.000401311
-0.0006045
-0.000879885
-0.000843532
0.000586215
0.00142744
0.00174553
0.00125121
0.000683833
0.000707874
0.00121966
0.000949153
0.000731338
0.00114851
0.000960188
-0.000104648
0.000160011
0.000750199
-0.000213308
-0.000782387
-0.000481232
-0.000594516
-0.000932746
-0.000971801
0.000620489
0.00142026
0.0017355
0.00125088
0.000721316
0.000730541
0.00121054
0.000971279
0.000719368
0.00111975
0.00096557
-9.57196e-05
9.28235e-05
0.000722149
-0.000168407
-0.00086696
-0.000573883
-0.000588583
-0.000959862
-0.00108555
0.000655643
0.00141392
0.00172643
0.00124985
0.000758003
0.000755895
0.00119964
0.000993638
0.000711365
0.00108276
0.000966045
-8.28473e-05
2.33804e-05
0.000682691
-0.000117181
-0.000921226
-0.000676879
-0.00059089
-0.000964147
-0.00117792
0.000691756
0.00140824
0.00171904
0.00124825
0.000792692
0.000784569
0.00118733
0.00101488
0.000708005
0.00103666
0.0009585
-6.54728e-05
-4.45444e-05
0.000631753
-6.30019e-05
-0.00095735
-0.000787305
-0.000605733
-0.000949394
-0.00124382
0.000728943
0.00140299
0.0017138
0.00124662
0.000823859
0.000816788
0.00117436
0.00103297
0.000709241
0.00098407
0.000942008
-4.38812e-05
-0.000107103
0.000569972
-9.90494e-06
-0.000973654
-0.00090086
-0.000637043
-0.000920998
-0.00128015
0.000767373
0.00139795
0.00171086
0.00124596
0.000850066
0.000851983
0.00116179
0.00104564
0.000714539
0.000931748
0.000916706
-1.91472e-05
-0.000161864
0.000498821
3.81542e-05
-0.00096973
-0.0010121
-0.000687498
-0.000885987
-0.00128624
0.000807229
0.00139294
0.00171019
0.00124772
0.00087025
0.000888326
0.00115105
0.00105169
0.000722948
0.000882713
0.000883542
6.69016e-06
-0.000207893
0.000420603
7.64661e-05
-0.000947184
-0.0011149
-0.000757522
-0.000852182
-0.00126379
0.00084874
0.00138786
0.00171133
0.00125369
0.000884016
0.000922897
0.00114359
0.00105098
0.000732213
0.000839434
0.000845302
3.17712e-05
-0.000245366
0.000337544
0.000103863
-0.000908477
-0.00120353
-0.000844921
-0.000827513
-0.00121719
0.000892123
0.0013828
0.00171342
0.00126547
0.000891798
0.00095248
0.00113975
0.00104408
0.000739587
0.000803749
0.000806835
5.52655e-05
-0.0002753
0.000251324
0.000119332
-0.000855934
-0.0012731
-0.000945193
-0.000818969
-0.00115358
0.000937518
0.0013779
0.00171566
0.00128423
0.00089511
0.000974191
0.0011389
0.0010317
0.000742685
0.000776525
0.00077098
7.70825e-05
-0.000298702
0.000163355
0.000121753
-0.000792409
-0.00131957
-0.00105213
-0.000831044
-0.00108215
0.000985045
0.00137351
0.00171668
0.00131081
0.00089663
0.000985607
0.00113909
0.00101453
0.000740284
0.000757782
0.000745981
9.85068e-05
-0.000316104
7.9289e-05
0.000110698
-0.000722673
-0.00133976
-0.0011582
-0.000865096
-0.00101288
0.00103468
0.00137028
0.0017148
0.00134527
0.000899939
0.000984846
0.00113722
0.000994853
0.000732707
0.000744025
0.000728354
0.000121111
-0.00032789
-5.69143e-06
8.57463e-05
-0.00065262
-0.00133261
-0.00125478
-0.000919347
-0.000954513
0.00108632
0.00136879
0.00170905
0.00138618
0.000907512
0.000970906
0.00113138
0.000980596
0.000721849
0.000730155
0.000716412
0.000146503
-0.000332988
-8.78734e-05
4.71567e-05
-0.000587987
-0.001301
-0.00133362
-0.00098898
-0.000912954
0.00113971
0.00136986
0.00169845
0.00142999
0.000920724
0.000945024
0.00112202
0.000975979
0.000710576
0.00071126
0.000706165
0.000176452
-0.00032885
-0.000165114
-3.48386e-06
-0.000533454
-0.00125011
-0.00138901
-0.00106701
-0.00089132
0.00119439
0.00137456
0.00168193
0.00147236
0.000942087
0.000912967
0.00110693
0.000980011
0.000702229
0.000685694
0.000693357
0.000210869
-0.000313594
-0.000234111
-6.30796e-05
-0.000491995
-0.00118613
-0.00141851
-0.00114573
-0.000890183
0.00124983
0.00138368
0.00165989
0.00150946
0.000973587
0.000880189
0.00108093
0.000988098
0.000701059
0.000656432
0.000674483
0.000246243
-0.000287269
-0.000289949
-0.000127005
-0.000464645
-0.00111537
-0.00142215
-0.00121779
-0.000908064
0.00130537
0.00139787
0.00163398
0.00153822
0.00101488
0.000851715
0.00104387
0.000994858
0.000709654
0.000629101
0.000648528
0.000277114
-0.000251102
-0.000330261
-0.00019041
-0.000450063
-0.00104354
-0.00140164
-0.00127605
-0.000942072
0.00136027
0.00141758
0.00160629
0.00155622
0.00106353
0.000832026
0.00099684
0.000994906
0.000727562
0.000609259
0.000616545
0.000299688
-0.00020824
-0.000355193
-0.000249453
-0.000445475
-0.000974856
-0.00136058
-0.00131323
-0.000986109
0.00141373
0.0014429
0.00157925
0.00156211
0.00111538
0.000824699
0.000943634
0.000983946
0.000751301
0.00060071
0.000583525
0.000312908
-0.000164266
-0.000365541
-0.000301412
-0.000448017
-0.000911381
-0.00130487
-0.0013247
-0.00102963
0.00146505
0.00147353
0.00155559
0.00155542
0.00116521
0.000831614
0.000890842
0.00096028
0.000774363
0.000604106
0.000556582
0.000318813
-0.000123753
-0.000363785
-0.000344212
-0.000455122
-0.000853386
-0.00124047
-0.00131159
-0.00106095
0.00151376
0.0015084
0.0015373
0.00153775
0.00120827
0.00085246
0.000845825
0.000924517
0.000789643
0.000618058
0.000540238
0.000321684
-8.66184e-05
-0.000354106
-0.000377467
-0.000464856
-0.000800715
-0.00117078
-0.00127875
-0.00107239
0.00155957
0.00154575
0.00152606
0.00151248
0.001241
0.000884274
0.000813824
0.000880478
0.000792537
0.000637436
0.000535964
0.000326879
-5.10604e-05
-0.00033833
-0.000402633
-0.000476158
-0.000753627
-0.00109742
-0.00123091
-0.00106241
0.00160229
0.00158329
0.00152291
0.00148398
0.00126141
0.000921428
0.000797222
0.000835897
0.000782635
0.000653882
0.000542837
0.000338486
-1.51712e-05
-0.000315164
-0.000419803
-0.000488817
-0.000712754
-0.00102189
-0.00117094
-0.00103304
0.00164194
0.00161939
0.00152764
0.00145656
0.00126939
0.000958112
0.000796664
0.000798147
0.000761677
0.000661608
0.000556494
0.000358633
2.41274e-05
-0.000284398
-0.000426516
-0.000502058
-0.000679683
-0.000946583
-0.00110082
-0.000987308
0.00167876
0.00165306
0.00153896
0.0014335
0.0012662
0.000991893
0.000809531
0.000771775
0.000735384
0.000659488
0.000569084
0.000386251
7.04494e-05
-0.000245065
-0.000420771
-0.000512112
-0.000655617
-0.000875304
-0.00102309
-0.000928572
0.00171314
0.00168365
0.0015544
0.00141691
0.00125107
0.00101377
0.000829332
0.000758585
0.00071159
0.000649179
0.000575732
0.000416128
0.000123561
-0.00019475
-0.000401613
-0.000513849
-0.00063817
-0.000812101
-0.000941227
-0.000859766
0.00174534
0.001711
0.00157127
0.00140746
0.00123535
0.00102531
0.000849662
0.000758187
0.000695707
0.000634801
0.000576255
0.000442837
0.000180503
-0.000132501
-0.000366986
-0.000503915
-0.000621617
-0.000758565
-0.000859653
-0.000783223
0.00177545
0.00173516
0.00158753
0.00140466
0.00122117
0.00102711
0.000866463
0.000767613
0.000690616
0.00062274
0.000571906
0.00046418
0.000236242
-6.17303e-05
-0.000314767
-0.000479124
-0.000600088
-0.00071227
-0.000782573
-0.000701232
0.00180337
0.00175647
0.00160194
0.00140656
0.00121046
0.00102226
0.000877306
0.000781334
0.000695986
0.000618584
0.0005658
0.000479682
0.000287984
1.32492e-05
-0.000247076
-0.000435834
-0.000568361
-0.000667549
-0.000711537
-0.000617026
0.0018288
0.00177544
0.00161394
0.00141042
0.001204
0.00101506
0.000882007
0.000794679
0.000709812
0.000624984
0.00056464
0.000491433
0.000333947
8.85945e-05
-0.00016865
-0.000373175
-0.00052106
-0.000617611
-0.000643525
-0.000533201
0.00185133
0.00179232
0.00162312
0.00141432
0.00120136
0.00100858
0.000881469
0.000804948
0.000728095
0.000640856
0.00057354
0.000504203
0.000374077
0.00016195
-8.34599e-05
-0.000295235
-0.000455327
-0.000556733
-0.000572992
-0.000448807
0.00187029
0.00180701
0.00163011
0.0014162
0.00120107
0.00100431
0.000877843
0.000811019
0.000746913
0.000664185
0.000593243
0.00052462
0.000412916
0.000232015
6.28962e-06
-0.00020553
-0.000371756
-0.000480053
-0.000494768
-0.000361731
0.0018856
0.00181912
0.00163545
0.00141582
0.00120013
0.0010017
0.000873793
0.000813241
0.000763861
0.000692532
0.000622305
0.000555455
0.000456293
0.00030106
9.97273e-05
-0.00010524
-0.000273086
-0.00038565
-0.000404355
-0.000268179
0.00189698
0.0018281
0.00163901
0.00141303
0.00119684
0.000999393
0.000870438
0.000812845
0.000777159
0.000722944
0.000659798
0.00059671
0.000509122
0.00037487
0.000198441
6.66566e-06
-0.000160186
-0.000273839
-0.000297454
-0.000163383
0.00190429
0.0018336
0.0016403
0.00140751
0.00119039
0.000995438
0.000866602
0.000811094
0.000786589
0.000752057
0.000703754
0.000648014
0.000572743
0.000458422
0.00030564
0.000132109
-2.9891e-05
-0.000143164
-0.00017023
-4.19589e-05
0.00190727
0.00183506
0.00163881
0.0013992
0.00117997
0.000987802
0.000860495
0.000807578
0.000793002
0.000777922
0.000750497
0.00070918
0.000648585
0.000555656
0.000426741
0.00027474
0.000123079
1.15668e-05
-1.78524e-05
0.000102451
0.00190586
0.00183196
0.00163373
0.00138795
0.00116477
0.000974758
0.000850164
0.000800475
0.000795436
0.000799768
0.000796232
0.000777182
0.000737774
0.000670319
0.000569672
0.000442988
0.000307406
0.000200195
0.000168267
0.000278748
0.00189956
0.0018243
0.0016248
0.00137307
0.00114388
0.000954441
0.000833122
0.000787354
0.000791141
0.000815488
0.000838606
0.000847968
0.000838692
0.000805007
0.000741839
0.000650119
0.000539521
0.000440931
0.000404934
0.000501437
0.00188746
0.00181088
0.00161157
0.00135333
0.0011167
0.000925866
0.000806155
0.000764063
0.000776279
0.000819988
0.000873503
0.000918503
0.000949543
0.000961453
0.000948436
0.000908056
0.000841761
0.000770553
0.000737098
0.000809716
0.00187283
0.00179343
0.0015907
0.00132588
0.00108157
0.000888402
0.000766914
0.000724841
0.000742754
0.000803103
0.000890891
0.000982934
0.0010698
0.00114347
0.00119294
0.0012192
0.00122063
0.00121458
0.00122821
0.00131458
0.00185574
0.00177163
0.00156133
0.00129108
0.0010392
0.000841119
0.000713442
0.000666051
0.000681518
0.000746486
0.000856513
0.00100609
0.00119217
0.00140059
0.00159395
0.00173486
0.00179562
0.00179374
0.00178167
0.00180951
0.0018306
0.00173974
0.00152593
0.00125277
0.000994667
0.00078846
0.000651119
0.000586937
0.000588888
0.000643278
0.000736109
0.000845357
0.000987857
0.00126517
0.00175621
0.00239058
0.00301805
0.00351789
0.00384096
0.00402033
0.00179881
0.00169758
0.00147837
0.00119845
0.000933863
0.000730911
0.000597841
0.000527422
0.000508892
0.000544528
0.000695174
0.00103403
0.00152428
0.00204499
0.00250352
0.00288822
0.00321801
0.00350992
0.00376302
0.00388545
0.00176801
0.00167626
0.00144338
0.00113745
0.00082854
0.000570097
0.000388372
0.000323996
0.000439695
0.000748004
0.00116381
0.00158065
0.00196317
0.00234147
0.00273254
0.00315365
0.00359364
0.00400672
0.00432372
0.00446025
0.00169251
0.00158209
0.00139173
0.00115332
0.000906835
0.000717473
0.000624134
0.000630031
0.000721725
0.000851574
0.000998792
0.00116025
0.00133301
0.00159445
0.00201661
0.00262028
0.00337512
0.00413174
0.00471544
0.00498559
0.00168336
0.00157335
0.001313
0.000986264
0.000680594
0.000501824
0.000488503
0.000585243
0.00077214
0.00102891
0.00134631
0.00173097
0.00214458
0.00256515
0.00299533
0.00342251
0.00383743
0.00419795
0.00445391
0.00453812
0.00160417
0.00150256
0.00131701
0.00108247
0.000824075
0.000597852
0.000471672
0.000478272
0.000662349
0.000992148
0.00136806
0.00174148
0.00208468
0.00239505
0.00272726
0.00310454
0.00350684
0.00388883
0.0041875
0.00432772
0.00654881
0.00306236
-0.00333646
-0.00815159
-0.00884541
-0.00723206
-0.00542775
-0.00406397
-0.00303593
-0.00220346
-0.00162669
-0.00130768
-0.00103615
-0.00064242
-0.000189812
0.000211268
0.000565996
0.000875463
0.0011289
0.00141683
0.00179198
0.00217146
0.0025029
0.00282325
0.0031677
0.00354305
0.00392776
0.00428823
0.00462202
0.00495797
0.00530881
0.00565137
0.00597053
0.00629136
0.00664277
0.00700899
0.0073685
0.00773372
0.00812336
0.00852108
0.00890343
0.00928385
0.00967933
0.0100825
0.010472
0.0108607
0.0112682
0.0116911
0.0121112
0.0125353
0.012984
0.013446
0.013906
0.014385
0.0148811
0.0153695
0.0158603
0.0163582
0.0168562
0.0173698
0.0179054
0.0184518
0.0190091
0.0195779
0.0201522
0.0207323
0.0213308
0.0219451
0.0225659
0.0232021
0.0238497
0.0245107
0.0251875
0.0258773
0.0265834
0.0273026
0.028034
0.0287799
0.029535
0.030315
0.031106
0.0319134
0.032736
0.0335651
0.0344179
0.0352862
0.0361641
0.0370764
0.0379881
0.0389195
0.039875
0.0408389
0.0418232
0.0428269
0.0438466
0.0448783
0.0459327
0.0469849
0.0479816
0.048991
0.00605876
0.00294587
-0.00323802
-0.00801159
-0.00876823
-0.00719633
-0.00540522
-0.00404747
-0.00302316
-0.00219271
-0.00161726
-0.00129977
-0.00102977
-0.000637056
-0.000185054
0.000215505
0.000569835
0.000879014
0.00113201
0.00141948
0.00179444
0.00217383
0.00250508
0.00282521
0.00316947
0.00354467
0.00392929
0.00428968
0.00462336
0.0049592
0.00530997
0.00565249
0.00597159
0.00629234
0.00664369
0.00700989
0.00736936
0.00773452
0.00812412
0.00852182
0.00890414
0.00928451
0.00967996
0.0100832
0.0104726
0.0108613
0.0112687
0.0116916
0.0121117
0.0125357
0.0129844
0.0134464
0.0139064
0.0143853
0.0148815
0.0153698
0.0158607
0.0163586
0.0168565
0.0173701
0.0179057
0.018452
0.0190093
0.0195782
0.0201525
0.0207325
0.021331
0.0219453
0.0225662
0.0232022
0.0238498
0.0245109
0.0251876
0.0258774
0.0265836
0.0273028
0.0280342
0.0287801
0.0295352
0.0303152
0.0311061
0.0319136
0.0327361
0.0335652
0.034418
0.0352863
0.0361642
0.0370765
0.0379882
0.0389196
0.0398751
0.040839
0.0418233
0.042827
0.0438467
0.0448784
0.0459328
0.046985
0.0479816
0.0489911
0.00552401
0.00279802
-0.00304606
-0.00774153
-0.00862635
-0.00714399
-0.00538036
-0.00402964
-0.00300871
-0.00218107
-0.00160763
-0.00129138
-0.00102232
-0.000630573
-0.000179627
0.000219927
0.000573621
0.000882463
0.00113503
0.00142207
0.0017968
0.00217603
0.00250707
0.00282704
0.00317114
0.00354621
0.00393074
0.00429103
0.00462459
0.00496031
0.00531103
0.0056535
0.00597252
0.00629318
0.00664449
0.00701068
0.00737011
0.00773521
0.00812479
0.00852248
0.00890477
0.00928509
0.00968052
0.0100837
0.0104731
0.0108618
0.0112692
0.0116921
0.0121121
0.0125361
0.0129848
0.0134468
0.0139067
0.0143857
0.0148818
0.0153701
0.015861
0.0163589
0.0168568
0.0173703
0.017906
0.0184523
0.0190095
0.0195784
0.0201527
0.0207327
0.0213312
0.0219455
0.0225663
0.0232024
0.02385
0.0245111
0.0251878
0.0258776
0.0265837
0.0273029
0.0280343
0.0287802
0.0295353
0.0303153
0.0311063
0.0319137
0.0327362
0.0335653
0.0344181
0.0352864
0.0361643
0.0370766
0.0379883
0.0389197
0.0398752
0.0408391
0.0418234
0.0428271
0.0438467
0.0448785
0.0459329
0.0469851
0.0479817
0.0489912
0.00501302
0.00266074
-0.00278853
-0.00738268
-0.00842011
-0.00706525
-0.005344
-0.00400384
-0.00298787
-0.0021657
-0.00159652
-0.00128155
-0.00101237
-0.000621228
-0.000171905
0.000225889
0.000578485
0.000886941
0.00113925
0.00142578
0.00179988
0.00217856
0.00250934
0.00282925
0.00317325
0.0035481
0.00393244
0.0042926
0.00462605
0.00496164
0.00531223
0.00565461
0.00597353
0.0062941
0.00664535
0.0070115
0.00737089
0.00773596
0.00812551
0.00852318
0.00890543
0.00928572
0.00968111
0.0100843
0.0104737
0.0108623
0.0112697
0.0116925
0.0121126
0.0125365
0.0129852
0.0134472
0.0139071
0.014386
0.0148822
0.0153705
0.0158613
0.0163592
0.0168571
0.0173706
0.0179062
0.0184525
0.0190098
0.0195786
0.0201529
0.0207329
0.0213313
0.0219457
0.0225665
0.0232026
0.0238502
0.0245112
0.0251879
0.0258777
0.0265839
0.0273031
0.0280345
0.0287803
0.0295354
0.0303154
0.0311064
0.0319138
0.0327363
0.0335654
0.0344182
0.0352865
0.0361644
0.0370767
0.0379884
0.0389198
0.0398752
0.0408392
0.0418235
0.0428271
0.0438468
0.0448786
0.0459329
0.0469851
0.0479819
0.0489915
0.00452896
0.0025238
-0.0025148
-0.00699451
-0.00818584
-0.0069732
-0.00530155
-0.00397199
-0.00296068
-0.00214597
-0.00158326
-0.00126964
-0.000999137
-0.000608224
-0.000161209
0.000233916
0.000584808
0.00089296
0.00114558
0.00143173
0.00180449
0.00218188
0.00251221
0.00283224
0.00317617
0.00355062
0.00393457
0.0042946
0.00462802
0.00496347
0.00531381
0.00565598
0.00597478
0.00629524
0.00664636
0.00701242
0.00737178
0.00773683
0.00812634
0.00852398
0.00890619
0.00928645
0.00968182
0.0100849
0.0104743
0.0108628
0.0112702
0.011693
0.0121131
0.012537
0.0129856
0.0134476
0.0139075
0.0143864
0.0148826
0.0153708
0.0158616
0.0163595
0.0168574
0.0173708
0.0179065
0.0184528
0.01901
0.0195788
0.0201531
0.0207331
0.0213316
0.0219459
0.0225667
0.0232028
0.0238504
0.0245114
0.0251881
0.0258779
0.026584
0.0273032
0.0280346
0.0287805
0.0295355
0.0303155
0.0311065
0.0319139
0.0327364
0.0335655
0.0344183
0.0352866
0.0361645
0.0370768
0.0379885
0.0389199
0.0398753
0.0408393
0.0418236
0.0428272
0.0438469
0.0448786
0.045933
0.0469853
0.047982
0.0489919
0.00406623
0.00236567
-0.00225207
-0.00659737
-0.00793544
-0.00687425
-0.00525752
-0.00393745
-0.00292942
-0.00212289
-0.00156805
-0.00125591
-0.000983297
-0.000592336
-0.000148086
0.000243701
0.000592384
0.000900425
0.00115424
0.00144041
0.0018112
0.00218645
0.00251604
0.00283629
0.00318018
0.00355394
0.00393716
0.00429701
0.0046306
0.00496597
0.00531591
0.00565776
0.00597647
0.0062968
0.00664765
0.00701349
0.00737281
0.00773788
0.00812731
0.00852487
0.00890708
0.00928736
0.00968268
0.0100857
0.010475
0.0108635
0.0112709
0.0116937
0.0121137
0.0125375
0.0129862
0.0134481
0.013908
0.0143868
0.014883
0.0153713
0.015862
0.0163599
0.0168577
0.0173712
0.0179068
0.0184531
0.0190103
0.0195791
0.0201534
0.0207334
0.0213318
0.0219462
0.0225669
0.023203
0.0238506
0.0245116
0.0251883
0.0258781
0.0265842
0.0273034
0.0280348
0.0287806
0.0295357
0.0303157
0.0311067
0.031914
0.0327366
0.0335656
0.0344184
0.0352868
0.0361646
0.0370769
0.0379886
0.03892
0.0398754
0.0408394
0.0418237
0.0428273
0.043847
0.0448787
0.0459331
0.0469854
0.0479823
0.0489924
0.0036212
0.00217791
-0.00200719
-0.00619255
-0.00766779
-0.00676752
-0.00521229
-0.00390138
-0.00289515
-0.0020969
-0.00155087
-0.00124072
-0.00096586
-0.000574782
-0.000133561
0.000254493
0.000600654
0.000908833
0.00116472
0.0014515
0.00181999
0.00219249
0.00252109
0.00284162
0.00318543
0.00355813
0.0039402
0.00429978
0.00463372
0.00496912
0.00531856
0.00566004
0.00597876
0.00629899
0.00664937
0.0070148
0.00737408
0.00773917
0.00812844
0.00852583
0.00890808
0.00928847
0.00968374
0.0100867
0.0104759
0.0108644
0.0112717
0.0116944
0.0121143
0.0125382
0.0129868
0.0134487
0.0139085
0.0143874
0.0148836
0.0153718
0.0158625
0.0163603
0.0168581
0.0173716
0.0179072
0.0184535
0.0190107
0.0195795
0.0201537
0.0207337
0.0213321
0.0219464
0.0225672
0.0232032
0.0238508
0.0245118
0.0251885
0.0258783
0.0265844
0.0273036
0.028035
0.0287808
0.0295359
0.0303158
0.0311068
0.0319142
0.0327367
0.0335658
0.0344186
0.0352869
0.0361648
0.037077
0.0379887
0.0389201
0.0398755
0.0408395
0.0418238
0.0428274
0.0438471
0.0448788
0.0459332
0.0469856
0.0479826
0.048993
0.00319553
0.00196693
-0.00177859
-0.00577837
-0.00738053
-0.00665134
-0.00516596
-0.00386476
-0.00285856
-0.00206811
-0.00153167
-0.00122428
-0.000947401
-0.000556209
-0.000118143
0.000265937
0.000609359
0.000917774
0.00117628
0.00146415
0.00183034
0.00219985
0.00252739
0.00284825
0.00319188
0.00356318
0.0039437
0.00430286
0.00463725
0.00497273
0.00532159
0.00566273
0.00598166
0.00630191
0.00665169
0.00701651
0.00737569
0.00774079
0.00812978
0.00852687
0.00890919
0.00928976
0.00968498
0.0100878
0.010477
0.0108656
0.0112727
0.0116953
0.0121152
0.012539
0.0129875
0.0134494
0.0139091
0.014388
0.0148842
0.0153724
0.0158631
0.0163609
0.0168586
0.017372
0.0179076
0.0184539
0.0190111
0.0195799
0.0201541
0.020734
0.0213324
0.0219467
0.0225675
0.0232035
0.0238511
0.0245121
0.0251888
0.0258785
0.0265846
0.0273038
0.0280352
0.028781
0.029536
0.030316
0.031107
0.0319144
0.0327369
0.0335659
0.0344187
0.035287
0.0361649
0.0370772
0.0379889
0.0389202
0.0398757
0.0408396
0.0418239
0.0428275
0.0438472
0.0448789
0.0459334
0.0469858
0.0479829
0.0489938
0.00279636
0.0017431
-0.00156744
-0.00535827
-0.00707429
-0.0065252
-0.00511906
-0.00382862
-0.00282016
-0.00203651
-0.00151035
-0.00120664
-0.000928083
-0.000536777
-0.000101909
0.000278062
0.000618571
0.000927149
0.00118846
0.00147769
0.00184168
0.00220818
0.00253471
0.00285594
0.00319933
0.00356899
0.00394766
0.00430624
0.00464109
0.00497662
0.00532481
0.00566563
0.00598502
0.0063055
0.00665463
0.0070187
0.00737774
0.00774284
0.00813138
0.00852802
0.00891037
0.00929118
0.00968636
0.010089
0.0104783
0.010867
0.011274
0.0116964
0.0121162
0.01254
0.0129883
0.0134501
0.0139099
0.0143887
0.0148849
0.0153731
0.0158638
0.0163615
0.0168592
0.0173726
0.0179082
0.0184544
0.0190116
0.0195804
0.0201546
0.0207344
0.0213328
0.0219471
0.0225678
0.0232039
0.0238514
0.0245124
0.0251891
0.0258788
0.0265848
0.027304
0.0280354
0.0287812
0.0295363
0.0303162
0.0311072
0.0319145
0.0327371
0.0335661
0.0344189
0.0352872
0.0361651
0.0370773
0.037989
0.0389203
0.0398758
0.0408397
0.041824
0.0428276
0.0438473
0.044879
0.0459335
0.046986
0.0479834
0.0489949
0.00243093
0.00151402
-0.00137928
-0.00493893
-0.00675055
-0.00638786
-0.00507117
-0.00379338
-0.00278022
-0.00200195
-0.00148667
-0.00118768
-0.00090787
-0.000516469
-8.48084e-05
0.000290961
0.000628405
0.000937003
0.00120112
0.00149184
0.00185369
0.00221721
0.00254277
0.00286443
0.00320755
0.00357541
0.00395204
0.00430993
0.00464519
0.0049807
0.0053281
0.00566859
0.00598865
0.00630959
0.00665812
0.00702137
0.00738025
0.00774532
0.00813331
0.00852932
0.00891166
0.00929272
0.00968782
0.0100902
0.0104797
0.0108685
0.0112756
0.0116977
0.0121175
0.0125413
0.0129894
0.013451
0.0139107
0.0143895
0.0148856
0.0153739
0.0158646
0.0163623
0.01686
0.0173733
0.0179088
0.018455
0.0190122
0.019581
0.0201551
0.020735
0.0213333
0.0219476
0.0225683
0.0232043
0.0238518
0.0245128
0.0251894
0.0258791
0.0265851
0.0273043
0.0280357
0.0287815
0.0295365