/*--------------------------------*- C++ -*----------------------------------*\
| =========                 |                                                 |
| \\      /  F ield         | OpenFOAM: The Open Source CFD Toolbox           |
|  \\    /   O peration     | Version:  3.0.1                                 |
|   \\  /    A nd           | Web:      www.OpenFOAM.org                      |
|    \\/     M anipulation  |                                                 |
\*---------------------------------------------------------------------------*/
FoamFile
{
    version     2.0;
    format      ascii;
    class       surfaceScalarField;
    location    "1.9";
    object      phi;
}
// * * * * * * * * * * * * * * * * * * * * * * * * * * * * * * * * * * * * * //

dimensions      [0 3 -1 0 0 0 0];

internalField   nonuniform List<scalar> 
19000
(
1.18009e-06
-2.70065e-07
1.17128e-06
4.28624e-07
1.1486e-06
-8.96003e-08
1.15212e-06
-2.74095e-07
1.21462e-06
-4.18729e-07
1.20819e-06
-1.87214e-07
1.1782e-06
2.27734e-07
1.17653e-06
6.34709e-07
1.15912e-06
3.2219e-07
1.14308e-06
-9.6133e-08
1.17177e-06
-4.52026e-08
1.15196e-06
-5.81707e-07
1.18258e-06
-1.06936e-07
1.15872e-06
-3.74566e-07
1.17996e-06
-2.29636e-07
1.16809e-06
-1.10253e-07
1.17498e-06
-3.2765e-08
1.16634e-06
1.01446e-07
1.16089e-06
1.80284e-07
1.92086e-07
1.13444e-06
1.23659e-06
-2.82392e-07
1.23192e-06
4.33291e-07
1.20653e-06
-6.42141e-08
1.20968e-06
-2.77244e-07
1.27267e-06
-4.8172e-07
1.26703e-06
-1.8157e-07
1.23332e-06
2.61445e-07
1.23884e-06
6.29184e-07
1.21587e-06
3.4516e-07
1.2045e-06
-8.4759e-08
1.22465e-06
-6.53551e-08
1.20941e-06
-5.66464e-07
1.23192e-06
-1.29447e-07
1.21967e-06
-3.62316e-07
1.23e-06
-2.39962e-07
1.23478e-06
-1.15039e-07
1.22128e-06
-1.92588e-08
1.23728e-06
8.54419e-08
1.20173e-06
2.1583e-07
1.7664e-07
1.21718e-06
1.29386e-06
-2.93469e-07
1.29642e-06
4.30732e-07
1.26776e-06
-3.55576e-08
1.27143e-06
-2.80909e-07
1.32952e-06
-5.39808e-07
1.33064e-06
-1.82696e-07
1.29285e-06
2.99234e-07
1.30205e-06
6.19992e-07
1.27802e-06
3.69184e-07
1.27049e-06
-7.72289e-08
1.28137e-06
-7.62324e-08
1.27346e-06
-5.5855e-07
1.28687e-06
-1.42865e-07
1.28762e-06
-3.63067e-07
1.28648e-06
-2.3882e-07
1.29912e-06
-1.2768e-07
1.28208e-06
-2.21705e-09
1.2919e-06
7.56213e-08
1.27293e-06
2.34798e-07
1.88151e-07
1.26142e-06
1.35235e-06
-3.0172e-07
1.36145e-06
4.21638e-07
1.33127e-06
-5.37456e-09
1.33544e-06
-2.85087e-07
1.38416e-06
-5.88529e-07
1.39379e-06
-1.92325e-07
1.35785e-06
3.35175e-07
1.36506e-06
6.12783e-07
1.34491e-06
3.89339e-07
1.33823e-06
-7.05555e-08
1.34211e-06
-8.01051e-08
1.33845e-06
-5.54899e-07
1.34716e-06
-1.51569e-07
1.35334e-06
-3.69251e-07
1.34955e-06
-2.35023e-07
1.36019e-06
-1.3832e-07
1.35096e-06
7.00465e-09
1.35073e-06
7.5859e-08
1.34457e-06
2.4095e-07
2.05541e-07
1.32718e-06
1.41291e-06
-3.06277e-07
1.42583e-06
4.08719e-07
1.39749e-06
2.2968e-08
1.40092e-06
-2.88518e-07
1.43757e-06
-6.25176e-07
1.45373e-06
-2.08493e-07
1.42702e-06
3.61885e-07
1.42961e-06
6.10195e-07
1.41514e-06
4.03814e-07
1.40782e-06
-6.32345e-08
1.40717e-06
-7.94643e-08
1.40399e-06
-5.51719e-07
1.41068e-06
-1.58254e-07
1.41693e-06
-3.75506e-07
1.41453e-06
-2.32622e-07
1.42194e-06
-1.45729e-07
1.41891e-06
1.00348e-08
1.41573e-06
7.90395e-08
1.41397e-06
2.4271e-07
2.20992e-07
1.39852e-06
1.47671e-06
-3.07308e-07
1.49037e-06
3.95059e-07
1.46734e-06
4.59966e-08
1.46853e-06
-2.89706e-07
1.49244e-06
-6.49086e-07
1.51138e-06
-2.27433e-07
1.49746e-06
3.75802e-07
1.49697e-06
6.1068e-07
1.48735e-06
4.13441e-07
1.47978e-06
-5.56709e-08
1.47649e-06
-7.6171e-08
1.47172e-06
-5.46953e-07
1.47672e-06
-1.6325e-07
1.48108e-06
-3.79869e-07
1.47982e-06
-2.31355e-07
1.48504e-06
-1.50957e-07
1.48515e-06
9.92544e-09
1.48203e-06
8.21596e-08
1.48332e-06
2.41419e-07
2.34454e-07
1.46986e-06
1.54464e-06
-3.05732e-07
1.55703e-06
3.82675e-07
1.54123e-06
6.1797e-08
1.53956e-06
-2.88042e-07
1.55162e-06
-6.61144e-07
1.56963e-06
-2.45446e-07
1.56713e-06
3.78303e-07
1.56692e-06
6.10888e-07
1.56106e-06
4.19302e-07
1.55426e-06
-4.88695e-08
1.54971e-06
-7.16248e-08
1.54287e-06
-5.40109e-07
1.54595e-06
-1.66331e-07
1.54777e-06
-3.81687e-07
1.54659e-06
-2.3018e-07
1.54988e-06
-1.54242e-07
1.55183e-06
7.97428e-09
1.54875e-06
8.52371e-08
1.55302e-06
2.37148e-07
2.45962e-07
1.54152e-06
1.61701e-06
-3.02612e-07
1.62758e-06
3.72098e-07
1.61886e-06
7.05245e-08
1.61485e-06
-2.84035e-07
1.61686e-06
-6.63151e-07
1.6313e-06
-2.59894e-07
1.63627e-06
3.73334e-07
1.63895e-06
6.08212e-07
1.63653e-06
4.21718e-07
1.63124e-06
-4.35786e-08
1.62644e-06
-6.68178e-08
1.61778e-06
-5.31457e-07
1.61907e-06
-1.67614e-07
1.61805e-06
-3.80671e-07
1.61637e-06
-2.28494e-07
1.61733e-06
-1.5521e-07
1.62057e-06
4.73743e-09
1.61708e-06
8.87299e-08
1.6237e-06
2.30527e-07
2.55256e-07
1.61441e-06
1.69366e-06
-2.98695e-07
1.70286e-06
3.62891e-07
1.69967e-06
7.37199e-08
1.69442e-06
-2.78786e-07
1.68861e-06
-6.57341e-07
1.69824e-06
-2.6952e-07
1.7068e-06
3.64774e-07
1.71332e-06
6.01687e-07
1.71433e-06
4.20714e-07
1.71084e-06
-4.00901e-08
1.70638e-06
-6.23592e-08
1.69635e-06
-5.21427e-07
1.6963e-06
-1.67566e-07
1.69242e-06
-3.7679e-07
1.69008e-06
-2.26151e-07
1.68832e-06
-1.53456e-07
1.69237e-06
6.9e-10
1.68821e-06
9.28919e-08
1.69629e-06
2.22447e-07
2.62183e-07
1.68936e-06
1.77437e-06
-2.94345e-07
1.78287e-06
3.54394e-07
1.7833e-06
7.32868e-08
1.77786e-06
-2.7334e-07
1.76652e-06
-6.46009e-07
1.77134e-06
-2.74339e-07
1.78091e-06
3.55207e-07
1.79098e-06
5.91614e-07
1.79512e-06
4.16576e-07
1.7933e-06
-3.82663e-08
1.78949e-06
-5.8555e-08
1.7784e-06
-5.10334e-07
1.77761e-06
-1.66773e-07
1.77107e-06
-3.70253e-07
1.76822e-06
-2.23302e-07
1.76359e-06
-1.48828e-07
1.76799e-06
-3.70547e-09
1.76309e-06
9.77898e-08
1.77171e-06
2.13825e-07
2.66666e-07
1.76723e-06
1.85909e-06
-2.8969e-07
1.86733e-06
3.46156e-07
1.86979e-06
7.08277e-08
1.8648e-06
-2.68346e-07
1.84996e-06
-6.31169e-07
1.85085e-06
-2.75233e-07
1.86016e-06
3.45897e-07
1.87293e-06
5.78848e-07
1.87957e-06
4.09928e-07
1.87898e-06
-3.76748e-08
1.87592e-06
-5.54928e-08
1.86392e-06
-4.98336e-07
1.86293e-06
-1.65776e-07
1.85407e-06
-3.61399e-07
1.85103e-06
-2.2026e-07
1.84368e-06
-1.41483e-07
1.84804e-06
-8.06566e-09
1.84252e-06
1.03311e-07
1.85079e-06
2.05554e-07
2.68623e-07
1.84884e-06
1.94792e-06
-2.84773e-07
1.95612e-06
3.3796e-07
1.9595e-06
6.74492e-08
1.9552e-06
-2.64046e-07
1.93835e-06
-6.14325e-07
1.93654e-06
-2.73425e-07
1.94521e-06
3.37232e-07
1.95978e-06
5.64278e-07
1.9682e-06
4.01501e-07
1.96831e-06
-3.77842e-08
1.96595e-06
-5.3132e-08
1.95308e-06
-4.85467e-07
1.95229e-06
-1.64985e-07
1.94147e-06
-3.50579e-07
1.9386e-06
-2.17384e-07
1.92896e-06
-1.31842e-07
1.933e-06
-1.21083e-08
1.92717e-06
1.0914e-07
1.93426e-06
1.98468e-07
2.67962e-07
1.93492e-06
2.04103e-06
-2.79617e-07
2.04931e-06
3.29686e-07
2.05293e-06
6.38283e-08
2.04929e-06
-2.60405e-07
2.03138e-06
-5.96421e-07
2.028e-06
-2.70045e-07
2.03608e-06
3.2916e-07
2.05177e-06
5.48586e-07
2.06136e-06
3.91913e-07
2.06169e-06
-3.81218e-08
2.05995e-06
-5.13917e-08
2.04618e-06
-4.71689e-07
2.04585e-06
-1.64663e-07
2.03337e-06
-3.38091e-07
2.03094e-06
-2.14955e-07
2.01959e-06
-1.20499e-07
2.02309e-06
-1.56036e-08
2.01746e-06
1.14765e-07
2.02277e-06
1.93158e-07
2.64738e-07
2.026e-06
2.13862e-06
-2.74239e-07
2.14709e-06
3.21222e-07
2.15057e-06
6.03436e-08
2.14744e-06
-2.57272e-07
2.12896e-06
-5.77943e-07
2.12484e-06
-2.65923e-07
2.13253e-06
3.21471e-07
2.14891e-06
5.32206e-07
2.15925e-06
3.8157e-07
2.15947e-06
-3.83383e-08
2.15829e-06
-5.02135e-08
2.14353e-06
-4.56935e-07
2.14382e-06
-1.64947e-07
2.12989e-06
-3.24158e-07
2.12804e-06
-2.13105e-07
2.11564e-06
-1.08106e-07
2.11837e-06
-1.8331e-08
2.11356e-06
1.19579e-07
2.11685e-06
1.89863e-07
2.59251e-07
2.12234e-06
2.24089e-06
-2.68639e-07
2.24967e-06
3.12445e-07
2.25282e-06
5.71867e-08
2.25004e-06
-2.54488e-07
2.23118e-06
-5.59081e-07
2.22681e-06
-2.61555e-07
2.23434e-06
3.1394e-07
2.25116e-06
5.15388e-07
2.26205e-06
3.7068e-07
2.26191e-06
-3.81984e-08
2.26128e-06
-4.95836e-08
2.2455e-06
-4.41154e-07
2.24642e-06
-1.65874e-07
2.23124e-06
-3.08973e-07
2.22991e-06
-2.11778e-07
2.21712e-06
-9.53096e-08
2.21879e-06
-2.00082e-08
2.21539e-06
1.22986e-07
2.2168e-06
1.88447e-07
2.52068e-07
2.22398e-06
2.34804e-06
-2.62807e-07
2.35724e-06
3.03247e-07
2.35999e-06
5.44406e-08
2.35743e-06
-2.51935e-07
2.33823e-06
-5.3988e-07
2.33386e-06
-2.57186e-07
2.34142e-06
3.06382e-07
2.35853e-06
4.98279e-07
2.3699e-06
3.59309e-07
2.36925e-06
-3.7546e-08
2.36919e-06
-4.95243e-08
2.35238e-06
-4.24339e-07
2.35391e-06
-1.67405e-07
2.33768e-06
-2.92747e-07
2.33665e-06
-2.10746e-07
2.32405e-06
-8.27074e-08
2.32434e-06
-2.03021e-08
2.32279e-06
1.24536e-07
2.32271e-06
1.88525e-07
2.43901e-07
2.33088e-06
2.46032e-06
-2.5673e-07
2.47001e-06
2.93556e-07
2.47232e-06
5.21291e-08
2.46993e-06
-2.49543e-07
2.45039e-06
-5.20343e-07
2.4461e-06
-2.52888e-07
2.45382e-06
2.98659e-07
2.4711e-06
4.80995e-07
2.48297e-06
3.4744e-07
2.4817e-06
-3.62767e-08
2.48225e-06
-5.00681e-08
2.46446e-06
-4.06553e-07
2.46648e-06
-1.69427e-07
2.44948e-06
-2.7574e-07
2.4484e-06
-2.0967e-07
2.43651e-06
-7.0815e-08
2.43512e-06
-1.89119e-08
2.4356e-06
1.24053e-07
2.43454e-06
1.89583e-07
2.35451e-07
2.44299e-06
2.57796e-06
-2.50393e-07
2.58818e-06
2.83329e-07
2.59007e-06
5.02465e-08
2.58779e-06
-2.47269e-07
2.56794e-06
-5.00489e-07
2.56369e-06
-2.48645e-07
2.57168e-06
2.90675e-07
2.58902e-06
4.63658e-07
2.60145e-06
3.35009e-07
2.5995e-06
-3.43279e-08
2.60065e-06
-5.12243e-08
2.58203e-06
-3.87932e-07
2.58436e-06
-1.7175e-07
2.56691e-06
-2.58296e-07
2.56537e-06
-2.08132e-07
2.5546e-06
-6.00452e-08
2.5514e-06
-1.57101e-08
2.55372e-06
1.21735e-07
2.55231e-06
1.90992e-07
2.27356e-07
2.56041e-06
2.70122e-06
-2.43787e-07
2.712e-06
2.72552e-07
2.71347e-06
4.87716e-08
2.71128e-06
-2.4507e-07
2.69115e-06
-4.80368e-07
2.6869e-06
-2.4439e-07
2.69522e-06
2.82352e-07
2.71248e-06
4.46404e-07
2.72554e-06
3.21946e-07
2.72289e-06
-3.16823e-08
2.72462e-06
-5.29454e-08
2.70538e-06
-3.68696e-07
2.70775e-06
-1.74119e-07
2.69024e-06
-2.40791e-07
2.68783e-06
-2.05722e-07
2.67847e-06
-5.06854e-08
2.67354e-06
-1.07742e-08
2.6772e-06
1.18075e-07
2.67609e-06
1.92094e-07
2.20112e-07
2.68334e-06
2.83039e-06
-2.36909e-07
2.84171e-06
2.6123e-07
2.84281e-06
4.76716e-08
2.84064e-06
-2.42893e-07
2.82033e-06
-4.60066e-07
2.81598e-06
-2.40033e-07
2.82472e-06
2.73605e-07
2.84175e-06
4.29377e-07
2.8555e-06
3.08198e-07
2.85219e-06
-2.83726e-08
2.85436e-06
-5.51125e-08
2.83478e-06
-3.49123e-07
2.83689e-06
-1.76228e-07
2.8197e-06
-2.23599e-07
2.81608e-06
-2.02103e-07
2.80826e-06
-4.28661e-08
2.80184e-06
-4.35433e-09
2.80626e-06
1.13659e-07
2.806e-06
1.92351e-07
2.13993e-07
2.81212e-06
2.96575e-06
-2.29762e-07
2.9776e-06
2.49383e-07
2.97837e-06
4.6899e-08
2.97614e-06
-2.40665e-07
2.95577e-06
-4.39697e-07
2.9512e-06
-2.35464e-07
2.96047e-06
2.6434e-07
2.97714e-06
4.12704e-07
2.99159e-06
2.93751e-07
2.98771e-06
-2.44912e-08
2.99012e-06
-5.75294e-08
2.97054e-06
-3.2954e-07
2.97207e-06
-1.77754e-07
2.95551e-06
-2.07043e-07
2.95048e-06
-1.97071e-07
2.94415e-06
-3.65336e-08
2.93662e-06
3.17017e-09
2.94126e-06
1.09021e-07
2.94219e-06
1.91416e-07
2.09026e-07
2.94716e-06
3.1076e-06
-2.22353e-07
3.11993e-06
2.37048e-07
3.12044e-06
4.63877e-08
3.11807e-06
-2.38292e-07
3.09777e-06
-4.19398e-07
3.09287e-06
-2.30567e-07
3.10276e-06
2.54456e-07
3.11898e-06
3.9648e-07
3.13408e-06
2.78652e-07
3.12978e-06
-2.01905e-08
3.13219e-06
-5.99401e-08
3.11293e-06
-3.1028e-07
3.11358e-06
-1.78404e-07
3.09788e-06
-1.9134e-07
3.09138e-06
-1.90574e-07
3.08634e-06
-3.14912e-08
3.07814e-06
1.13738e-08
3.08259e-06
1.04566e-07
3.08486e-06
1.89141e-07
2.05046e-07
3.08885e-06
3.25625e-06
-2.14694e-07
3.26902e-06
2.24279e-07
3.26936e-06
4.60508e-08
3.26673e-06
-2.35665e-07
3.24665e-06
-3.99323e-07
3.2413e-06
-2.25214e-07
3.25189e-06
2.43868e-07
3.26762e-06
3.80747e-07
3.28327e-06
2.6301e-07
3.27875e-06
-1.56775e-08
3.28087e-06
-6.20605e-08
3.26223e-06
-2.91637e-07
3.26179e-06
-1.77968e-07
3.24703e-06
-1.7658e-07
3.23914e-06
-1.82682e-07
3.23513e-06
-2.74796e-08
3.22663e-06
1.98787e-08
3.23065e-06
1.00543e-07
3.23426e-06
1.85527e-07
2.01775e-07
3.23753e-06
3.41204e-06
-2.06802e-07
3.42517e-06
2.1115e-07
3.42544e-06
4.57796e-08
3.42244e-06
-2.32668e-07
3.40275e-06
-3.79631e-07
3.39683e-06
-2.1929e-07
3.40816e-06
2.32534e-07
3.42342e-06
3.65482e-07
3.43944e-06
2.46994e-07
3.43496e-06
-1.11968e-08
3.43651e-06
-6.36119e-08
3.41871e-06
-2.73837e-07
3.41709e-06
-1.76348e-07
3.40322e-06
-1.62713e-07
3.3941e-06
-1.73562e-07
3.39088e-06
-2.42557e-08
3.38237e-06
2.83845e-08
3.3858e-06
9.71179e-08
3.39069e-06
1.80639e-07
1.9891e-07
3.39355e-06
3.57531e-06
-1.987e-07
3.5887e-06
1.97758e-07
3.58903e-06
4.54488e-08
3.58555e-06
-2.29185e-07
3.56639e-06
-3.60474e-07
3.55981e-06
-2.12709e-07
3.57187e-06
2.20474e-07
3.58675e-06
3.50604e-07
3.60292e-06
2.30819e-07
3.59873e-06
-7.00628e-09
3.59949e-06
-6.43648e-08
3.58264e-06
-2.56993e-07
3.57986e-06
-1.73566e-07
3.56673e-06
-1.49585e-07
3.55659e-06
-1.63417e-07
3.55396e-06
-2.16319e-08
3.54571e-06
3.66434e-08
3.54838e-06
9.44463e-08
3.55445e-06
1.74563e-07
1.96139e-07
3.55722e-06
3.74642e-06
-1.90415e-07
3.75996e-06
1.84214e-07
3.76049e-06
4.49239e-08
3.75642e-06
-2.2512e-07
3.73792e-06
-3.41974e-07
3.73065e-06
-2.05439e-07
3.74334e-06
2.07784e-07
3.75797e-06
3.35979e-07
3.77407e-06
2.14717e-07
3.7704e-06
-3.33521e-09
3.77021e-06
-6.41755e-08
3.75432e-06
-2.41103e-07
3.7505e-06
-1.69747e-07
3.73791e-06
-1.36997e-07
3.72693e-06
-1.52432e-07
3.72477e-06
-1.9468e-08
3.717e-06
4.44122e-08
3.71875e-06
9.26912e-08
3.72588e-06
1.67436e-07
1.9312e-07
3.7289e-06
3.92575e-06
-1.81978e-07
3.93932e-06
1.70642e-07
3.94018e-06
4.40713e-08
3.93546e-06
-2.20403e-07
3.91769e-06
-3.24208e-07
3.90978e-06
-1.97525e-07
3.92293e-06
1.94636e-07
3.93746e-06
3.21443e-07
3.95326e-06
1.98921e-07
3.95029e-06
-3.63381e-10
3.94911e-06
-6.29965e-08
3.93407e-06
-2.26067e-07
3.92939e-06
-1.65061e-07
3.91716e-06
-1.24776e-07
3.90547e-06
-1.40735e-07
3.90364e-06
-1.76448e-08
3.89663e-06
5.14304e-08
3.89734e-06
9.19733e-08
3.90525e-06
1.59527e-07
1.89451e-07
3.90892e-06
4.1137e-06
-1.73424e-07
4.12717e-06
1.57173e-07
4.12846e-06
4.27749e-08
4.12308e-06
-2.15018e-07
4.10605e-06
-3.07178e-07
4.09762e-06
-1.89101e-07
4.111e-06
1.81255e-07
4.12562e-06
3.06833e-07
4.1409e-06
1.83632e-07
4.13873e-06
1.81141e-09
4.13661e-06
-6.08785e-08
4.12227e-06
-2.11722e-07
4.11688e-06
-1.59669e-07
4.10494e-06
-1.12836e-07
4.09261e-06
-1.28405e-07
4.09098e-06
-1.60182e-08
4.08495e-06
5.74595e-08
4.08465e-06
9.22707e-08
4.09288e-06
1.513e-07
1.84715e-07
4.09762e-06
4.31067e-06
-1.64787e-07
4.32391e-06
1.43927e-07
4.32573e-06
4.09576e-08
4.31973e-06
-2.09017e-07
4.30336e-06
-2.9081e-07
4.29464e-06
-1.80382e-07
4.308e-06
1.679e-07
4.32282e-06
2.92004e-07
4.33747e-06
1.6899e-07
4.33608e-06
3.20095e-09
4.33315e-06
-5.7952e-08
4.31931e-06
-1.97879e-07
4.31335e-06
-1.53708e-07
4.30167e-06
-1.01156e-07
4.28878e-06
-1.15517e-07
4.2872e-06
-1.44412e-08
4.28233e-06
6.23319e-08
4.2812e-06
9.33942e-08
4.28918e-06
1.43327e-07
1.78641e-07
4.29525e-06
4.51708e-06
-1.56098e-07
4.53001e-06
1.31006e-07
4.53236e-06
3.86022e-08
4.52587e-06
-2.02529e-07
4.51002e-06
-2.74962e-07
4.50127e-06
-1.71632e-07
4.51436e-06
1.54816e-07
4.5295e-06
2.76864e-07
4.54343e-06
1.55061e-07
4.54274e-06
3.89165e-09
4.53913e-06
-5.43487e-08
4.52562e-06
-1.84371e-07
4.5192e-06
-1.47281e-07
4.50777e-06
-8.97233e-08
4.49441e-06
-1.02158e-07
4.49278e-06
-1.28109e-08
4.48912e-06
6.59898e-08
4.48748e-06
9.50308e-08
4.4947e-06
1.36109e-07
1.71264e-07
4.50208e-06
4.7334e-06
-1.47383e-07
4.74594e-06
1.18469e-07
4.74877e-06
3.57735e-08
4.74201e-06
-1.95768e-07
4.72647e-06
-2.59431e-07
4.71797e-06
-1.63124e-07
4.73059e-06
1.4219e-07
4.74602e-06
2.61436e-07
4.75928e-06
1.41799e-07
4.75916e-06
4.01918e-09
4.75499e-06
-5.01849e-08
4.74166e-06
-1.71037e-07
4.73484e-06
-1.4046e-07
4.72363e-06
-7.85134e-08
4.70998e-06
-8.8506e-08
4.7082e-06
-1.10321e-08
4.70573e-06
6.84525e-08
4.70393e-06
9.68344e-08
4.7101e-06
1.29945e-07
1.62955e-07
4.7184e-06
4.96008e-06
-1.38663e-07
4.97222e-06
1.06329e-07
4.97538e-06
3.26132e-08
4.96862e-06
-1.89015e-07
4.9532e-06
-2.44002e-07
4.94514e-06
-1.55073e-07
4.95722e-06
1.30115e-07
4.9728e-06
2.4586e-07
4.9855e-06
1.29097e-07
4.98583e-06
3.68325e-09
4.98116e-06
-4.55094e-08
4.96785e-06
-1.57734e-07
4.96067e-06
-1.33273e-07
4.94973e-06
-6.75775e-08
4.93595e-06
-7.47264e-08
4.93398e-06
-9.05759e-09
4.93266e-06
6.97733e-08
4.93095e-06
9.85427e-08
4.93601e-06
1.24877e-07
1.54292e-07
4.94468e-06
5.1976e-06
-1.29951e-07
5.20938e-06
9.45504e-08
5.21265e-06
2.93406e-08
5.20625e-06
-1.82613e-07
5.19073e-06
-2.28481e-07
5.1832e-06
-1.47543e-07
5.19482e-06
1.18495e-07
5.21026e-06
2.30421e-07
5.2225e-06
1.16859e-07
5.22326e-06
2.92248e-09
5.21808e-06
-4.03319e-08
5.20464e-06
-1.44286e-07
5.19709e-06
-1.25726e-07
5.18663e-06
-5.71172e-08
5.17285e-06
-6.09479e-08
5.17063e-06
-6.83535e-09
5.17039e-06
7.00121e-08
5.16895e-06
9.99818e-08
5.17303e-06
1.20792e-07
1.45835e-07
5.18149e-06
5.44649e-06
-1.21254e-07
5.45799e-06
8.30534e-08
5.46111e-06
2.62209e-08
5.45539e-06
-1.76895e-07
5.43973e-06
-2.12822e-07
5.43254e-06
-1.40346e-07
5.44401e-06
1.07022e-07
5.45897e-06
2.15455e-07
5.47069e-06
1.05144e-07
5.4719e-06
1.70777e-09
5.46621e-06
-3.46384e-08
5.45243e-06
-1.30505e-07
5.44457e-06
-1.17866e-07
5.43489e-06
-4.74391e-08
5.42128e-06
-4.73341e-08
5.41868e-06
-4.24201e-09
5.41945e-06
6.92452e-08
5.41841e-06
1.01018e-07
5.42168e-06
1.17529e-07
1.37964e-07
5.42955e-06
5.70728e-06
-1.12577e-07
5.7186e-06
7.17313e-08
5.72131e-06
2.35139e-08
5.71649e-06
-1.72079e-07
5.70089e-06
-1.97216e-07
5.69364e-06
-1.33097e-07
5.70526e-06
9.54046e-08
5.71955e-06
2.01165e-07
5.73046e-06
9.42322e-08
5.73211e-06
5.0852e-11
5.72595e-06
-2.84689e-08
5.71176e-06
-1.16317e-07
5.70364e-06
-1.09752e-07
5.69507e-06
-3.88626e-08
5.68185e-06
-3.41134e-08
5.67869e-06
-1.08146e-09
5.68034e-06
6.75891e-08
5.67985e-06
1.01512e-07
5.68245e-06
1.14926e-07
1.3088e-07
5.68954e-06
5.98054e-06
-1.03923e-07
5.9918e-06
6.0466e-08
5.99391e-06
2.14087e-08
5.99001e-06
-1.68183e-07
5.97489e-06
-1.82093e-07
5.96705e-06
-1.25259e-07
5.97894e-06
8.35133e-08
5.99257e-06
1.87541e-07
6.00216e-06
8.46383e-08
6.00405e-06
-1.83967e-09
5.99768e-06
-2.20968e-08
5.98326e-06
-1.01892e-07
5.97501e-06
-1.01504e-07
5.96772e-06
-3.15697e-08
5.95514e-06
-2.15386e-08
5.95126e-06
2.80057e-09
5.9536e-06
6.52497e-08
5.9538e-06
1.01308e-07
5.9559e-06
1.12829e-07
1.24642e-07
5.96214e-06
6.26687e-06
-9.52996e-08
6.27817e-06
4.91614e-08
6.2796e-06
1.99826e-08
6.27637e-06
-1.64962e-07
6.26239e-06
-1.68112e-07
6.25352e-06
-1.16381e-07
6.26548e-06
7.15439e-08
6.27856e-06
1.74467e-07
6.28625e-06
7.69481e-08
6.28796e-06
-3.54886e-09
6.28203e-06
-1.61694e-08
6.26774e-06
-8.75997e-08
6.2594e-06
-9.31633e-08
6.25339e-06
-2.55604e-08
6.24171e-06
-9.85672e-09
6.23706e-06
7.44225e-09
6.23979e-06
6.25291e-08
6.24083e-06
1.00264e-07
6.24258e-06
1.11077e-07
1.19224e-07
6.248e-06
6.5669e-06
-8.67257e-08
6.57828e-06
3.77733e-08
6.57908e-06
1.91818e-08
6.57604e-06
-1.61919e-07
6.56394e-06
-1.56014e-07
6.5539e-06
-1.06334e-07
6.56537e-06
6.00695e-08
6.57811e-06
1.61724e-07
6.58365e-06
7.14066e-08
6.58495e-06
-4.84155e-09
6.58002e-06
-1.12454e-08
6.56614e-06
-7.37205e-08
6.55755e-06
-8.4569e-08
6.55264e-06
-2.06501e-08
6.5421e-06
6.8572e-10
6.53678e-06
1.27602e-08
6.53954e-06
5.97653e-08
6.5415e-06
9.83085e-08
6.54308e-06
1.09491e-07
1.14556e-07
6.54775e-06
6.8813e-06
-7.82313e-08
6.89273e-06
2.63355e-08
6.8931e-06
1.882e-08
6.88968e-06
-1.58501e-07
6.88e-06
-1.4634e-07
6.86909e-06
-9.54202e-08
6.87935e-06
4.98132e-08
6.89206e-06
1.49008e-07
6.89571e-06
6.77567e-08
6.89622e-06
-5.35044e-09
6.89241e-06
-7.43718e-09
6.87921e-06
-6.05133e-08
6.87022e-06
-7.5578e-08
6.86611e-06
-1.65403e-08
6.85687e-06
9.91793e-09
6.85107e-06
1.85604e-08
6.85356e-06
5.72755e-08
6.85641e-06
9.54642e-08
6.85803e-06
1.07865e-07
1.10561e-07
6.86203e-06
7.21077e-06
-6.98623e-08
7.22214e-06
1.49594e-08
7.22234e-06
1.8621e-08
7.21802e-06
-1.54182e-07
7.21101e-06
-1.39325e-07
7.19987e-06
-8.42815e-08
7.20829e-06
4.13911e-08
7.22119e-06
1.36112e-07
7.22334e-06
6.56024e-08
7.22261e-06
-4.62073e-09
7.21972e-06
-4.54177e-09
7.2075e-06
-4.82983e-08
7.19814e-06
-6.62185e-08
7.1945e-06
-1.28986e-08
7.18666e-06
1.77622e-08
7.18062e-06
2.45959e-08
7.18259e-06
5.53022e-08
7.18619e-06
9.18715e-08
7.18807e-06
1.05979e-07
1.07148e-07
7.19148e-06
7.55605e-06
-6.1684e-08
7.56718e-06
3.82722e-09
7.56755e-06
1.82517e-08
7.56187e-06
-1.48498e-07
7.5573e-06
-1.34762e-07
7.54693e-06
-7.39113e-08
7.55318e-06
3.51464e-08
7.56605e-06
1.23244e-07
7.56721e-06
6.44363e-08
7.56498e-06
-2.38874e-09
7.56257e-06
-2.13508e-09
7.55162e-06
-3.73492e-08
7.54206e-06
-5.66518e-08
7.5386e-06
-9.44354e-09
7.53213e-06
2.42352e-08
7.52611e-06
3.06184e-08
7.52741e-06
5.39964e-08
7.53153e-06
8.77548e-08
7.53387e-06
1.03641e-07
1.04188e-07
7.53683e-06
7.91791e-06
-5.37815e-08
7.92855e-06
-6.81574e-09
7.9295e-06
1.73011e-08
7.92209e-06
-1.41086e-07
7.91955e-06
-1.32221e-07
7.91075e-06
-6.51161e-08
7.91493e-06
3.09719e-08
7.92725e-06
1.10922e-07
7.92779e-06
6.38929e-08
7.92415e-06
1.2519e-09
7.92182e-06
1.94003e-10
7.91221e-06
-2.77359e-08
7.90266e-06
-4.71009e-08
7.89922e-06
-6.00466e-09
7.89403e-06
2.94269e-08
7.88825e-06
3.64025e-08
7.88883e-06
5.34126e-08
7.8932e-06
8.33817e-08
7.89611e-06
1.00738e-07
1.01491e-07
7.8988e-06
8.29715e-06
-4.62545e-08
8.30702e-06
-1.668e-08
8.3089e-06
1.54147e-08
8.29954e-06
-1.31719e-07
8.29842e-06
-1.31099e-07
8.29176e-06
-5.84611e-08
8.29408e-06
2.86524e-08
8.30519e-06
9.98136e-08
8.30558e-06
6.3504e-08
8.301e-06
5.82645e-09
8.29841e-06
2.7879e-09
8.28997e-06
-1.93003e-08
8.28066e-06
-3.77893e-08
8.2772e-06
-2.54733e-09
8.27313e-06
3.35055e-08
8.26779e-06
4.17332e-08
8.26767e-06
5.35413e-08
8.27204e-06
7.90096e-08
8.27551e-06
9.7262e-08
9.88509e-08
8.27815e-06
8.69462e-06
-3.9216e-08
8.70342e-06
-2.54792e-08
8.70641e-06
1.24267e-08
8.69511e-06
-1.20421e-07
8.69435e-06
-1.30336e-07
8.69019e-06
-5.4296e-08
8.69046e-06
2.83802e-08
8.69976e-06
9.05075e-08
8.70113e-06
6.21388e-08
8.69637e-06
1.05857e-08
8.69332e-06
5.84225e-09
8.68569e-06
-1.16702e-08
8.67686e-06
-2.89641e-08
8.67335e-06
9.6133e-10
8.67024e-06
3.66191e-08
8.66556e-06
4.6413e-08
8.66479e-06
5.43128e-08
8.66891e-06
7.48839e-08
8.6729e-06
9.32695e-08
9.61097e-08
8.67565e-06
9.11118e-06
-3.27802e-08
9.11866e-06
-3.2957e-08
9.1228e-06
8.29199e-09
9.10978e-06
-1.0741e-07
9.1073e-06
-1.27849e-07
9.10441e-06
-5.14118e-08
9.10244e-06
3.03521e-08
9.11156e-06
8.13887e-08
9.11517e-06
5.85298e-08
9.11111e-06
1.46485e-08
9.10747e-06
9.48046e-09
9.10035e-06
-4.54834e-09
9.09202e-06
-2.06408e-08
9.08853e-06
4.45514e-09
9.08623e-06
3.89216e-08
9.08234e-06
5.03007e-08
9.08109e-06
5.55593e-08
9.08474e-06
7.12377e-08
9.08915e-06
8.88549e-08
9.31588e-08
9.0921e-06
9.54774e-06
-2.70622e-08
9.55363e-06
-3.88452e-08
9.55897e-06
2.95399e-09
9.54454e-06
-9.29835e-08
9.53853e-06
-1.21842e-07
9.53639e-06
-4.92695e-08
9.53512e-06
3.16284e-08
9.54337e-06
7.31382e-08
9.54863e-06
5.32622e-08
9.54581e-06
1.74751e-08
9.54182e-06
1.34656e-08
9.53497e-06
2.30628e-09
9.52709e-06
-1.27647e-08
9.52367e-06
7.87577e-09
9.52204e-06
4.05555e-08
9.519e-06
5.33346e-08
9.51751e-06
5.70539e-08
9.5205e-06
6.82456e-08
9.52517e-06
8.41884e-08
8.99124e-08
9.52841e-06
1.00052e-05
-2.21534e-08
1.00093e-05
-4.29397e-08
1.00157e-05
-3.45112e-09
1.00009e-05
-7.81568e-08
9.9918e-06
-1.12744e-07
9.9915e-06
-4.89736e-08
9.9912e-06
3.19321e-08
9.99725e-06
6.70851e-08
1.00026e-05
4.7934e-08
1.00011e-05
1.89636e-08
9.99726e-06
1.73013e-08
9.99065e-06
8.91446e-09
9.98306e-06
-5.17149e-09
9.97974e-06
1.11882e-08
9.97864e-06
4.16641e-08
9.97647e-06
5.55051e-08
9.97495e-06
5.85643e-08
9.97724e-06
6.59646e-08
9.98191e-06
7.95157e-08
8.63058e-08
9.98552e-06
1.04846e-05
-1.81131e-08
1.04868e-05
-4.51401e-08
1.0494e-05
-1.06263e-08
1.048e-05
-6.41484e-08
1.04684e-05
-1.01209e-07
1.0469e-05
-4.95122e-08
1.04701e-05
3.08248e-08
1.04741e-05
6.30473e-08
1.04783e-05
4.37385e-08
1.04778e-05
1.94368e-08
1.04746e-05
2.05104e-08
1.04684e-05
1.51536e-08
1.0461e-05
2.18769e-09
1.04577e-05
1.44705e-08
1.04571e-05
4.23587e-08
1.04557e-05
5.68573e-08
1.04544e-05
5.98811e-08
1.0456e-05
6.43408e-08
1.04604e-05
7.50945e-08
8.23335e-08
1.04644e-05
1.09869e-05
-1.49552e-08
1.09872e-05
-4.54476e-08
1.09948e-05
-1.8209e-08
1.09824e-05
-5.18399e-08
1.0969e-05
-8.77272e-08
1.09692e-05
-4.97267e-08
1.0972e-05
2.80147e-08
1.09747e-05
6.02988e-08
1.09772e-05
4.12763e-08
1.09772e-05
1.94637e-08
1.09748e-05
2.28424e-08
1.09692e-05
2.08186e-08
1.09621e-05
9.23628e-09
1.09588e-05
1.78366e-08
1.09584e-05
4.27425e-08
1.09577e-05
5.74964e-08
1.09568e-05
6.08252e-08
1.09579e-05
6.32363e-08
1.09618e-05
7.11455e-08
7.8084e-08
1.09661e-05
1.15131e-05
-1.2646e-08
1.15116e-05
-4.40063e-08
1.15191e-05
-2.56655e-08
1.15091e-05
-4.18494e-08
1.14943e-05
-7.29561e-08
1.14932e-05
-4.85986e-08
1.14975e-05
2.36566e-08
1.14999e-05
5.79419e-08
1.15006e-05
4.05293e-08
1.15004e-05
1.97468e-08
1.14989e-05
2.43455e-08
1.14941e-05
2.55953e-08
1.14874e-05
1.59289e-08
1.14839e-05
2.12841e-08
1.14837e-05
4.29578e-08
1.14837e-05
5.75588e-08
1.14832e-05
6.12867e-08
1.1484e-05
6.24295e-08
1.14873e-05
6.78116e-08
7.37319e-08
1.14917e-05
1.20643e-05
-1.10934e-08
1.20613e-05
-4.10715e-08
1.2068e-05
-3.23711e-08
1.20607e-05
-3.45461e-08
1.20454e-05
-5.76573e-08
1.20423e-05
-4.54693e-08
1.20476e-05
1.83279e-08
1.20505e-05
5.51216e-08
1.20499e-05
4.10902e-08
1.20488e-05
2.08576e-08
1.20479e-05
2.52675e-08
1.20441e-05
2.93717e-08
1.2038e-05
2.20451e-08
1.20345e-05
2.48019e-08
1.20343e-05
4.31142e-08
1.20347e-05
5.71775e-08
1.20347e-05
6.12831e-08
1.20354e-05
6.16666e-08
1.20382e-05
6.50973e-08
6.95179e-08
1.20424e-05
1.26416e-05
-1.01499e-08
1.26376e-05
-3.7e-08
1.26428e-05
-3.76081e-08
1.26382e-05
-2.99449e-08
1.26233e-05
-4.27853e-08
1.2618e-05
-4.0175e-08
1.26234e-05
1.29319e-08
1.26273e-05
5.12791e-08
1.26261e-05
4.23153e-08
1.26239e-05
2.29799e-08
1.26231e-05
2.60818e-08
1.26203e-05
3.21786e-08
1.2615e-05
2.73226e-08
1.26115e-05
2.83485e-08
1.26113e-05
4.32855e-08
1.2612e-05
5.64611e-08
1.26124e-05
6.08986e-08
1.26133e-05
6.07856e-08
1.26156e-05
6.28362e-08
6.57034e-08
1.26194e-05
1.32464e-05
-9.62203e-09
1.32417e-05
-3.22818e-08
1.32447e-05
-4.05746e-08
1.32425e-05
-2.77493e-08
1.32291e-05
-2.94499e-08
1.32219e-05
-3.29437e-08
1.32264e-05
8.4479e-09
1.32313e-05
4.63126e-08
1.32302e-05
4.34273e-08
1.32272e-05
2.60058e-08
1.3226e-05
2.72769e-08
1.32241e-05
3.41147e-08
1.32197e-05
3.17148e-08
1.32163e-05
3.17039e-08
1.32161e-05
4.35519e-08
1.3217e-05
5.54923e-08
1.32177e-05
6.01882e-08
1.32188e-05
5.97732e-08
1.32208e-05
6.07779e-08
6.24366e-08
1.32241e-05
1.38798e-05
-9.29401e-09
1.3875e-05
-2.74168e-08
1.38752e-05
-4.08435e-08
1.38748e-05
-2.73339e-08
1.38639e-05
-1.84839e-08
1.38553e-05
-2.44192e-08
1.38581e-05
5.71317e-09
1.38638e-05
4.06244e-08
1.38634e-05
4.37375e-08
1.38599e-05
2.95832e-08
1.38581e-05
2.90486e-08
1.38567e-05
3.55376e-08
1.38532e-05
3.52148e-08
1.38502e-05
3.47115e-08
1.38498e-05
4.3877e-08
1.3851e-05
5.4369e-08
1.3852e-05
5.9174e-08
1.38531e-05
5.86781e-08
1.38551e-05
5.87597e-08
5.96425e-08
1.38579e-05
1.45433e-05
-8.96163e-09
1.45386e-05
-2.2726e-08
1.45364e-05
-3.86267e-08
1.45369e-05
-2.78111e-08
1.45287e-05
-1.02879e-08
1.45197e-05
-1.5419e-08
1.45203e-05
5.10973e-09
1.45259e-05
3.50008e-08
1.45267e-05
4.29421e-08
1.45233e-05
3.30528e-08
1.45209e-05
3.14556e-08
1.45195e-05
3.68442e-08
1.45169e-05
3.78343e-08
1.45143e-05
3.73257e-08
1.4514e-05
4.41594e-08
1.45152e-05
5.31537e-08
1.45165e-05
5.7885e-08
1.45177e-05
5.75083e-08
1.45197e-05
5.67688e-08
5.71064e-08
1.45222e-05
1.52384e-05
-8.48088e-09
1.52343e-05
-1.86293e-08
1.52301e-05
-3.44004e-08
1.52304e-05
-2.80997e-08
1.52249e-05
-4.83596e-09
1.52163e-05
-6.78628e-09
1.52148e-05
6.57396e-09
1.52195e-05
3.03231e-08
1.52213e-05
4.11244e-08
1.52186e-05
3.57678e-08
1.52157e-05
3.43218e-08
1.52143e-05
3.82711e-08
1.52123e-05
3.98198e-08
1.52102e-05
3.94508e-08
1.521e-05
4.43996e-08
1.52113e-05
5.18329e-08
1.52128e-05
5.63587e-08
1.52141e-05
5.62258e-08
1.5216e-05
5.4846e-08
5.46548e-08
1.52185e-05
1.59666e-05
-7.76698e-09
1.59634e-05
-1.5366e-08
1.59577e-05
-2.87956e-08
1.5957e-05
-2.7381e-08
1.59538e-05
-1.63841e-09
1.59463e-05
7.10003e-10
1.59432e-05
9.71376e-09
1.59463e-05
2.72123e-08
1.59487e-05
3.87152e-08
1.5947e-05
3.74729e-08
1.59442e-05
3.71231e-08
1.59425e-05
3.99352e-08
1.59409e-05
4.14332e-08
1.59393e-05
4.1075e-08
1.59391e-05
4.45815e-08
1.59405e-05
5.04452e-08
1.59423e-05
5.45842e-08
1.59437e-05
5.48035e-08
1.59455e-05
5.30129e-08
5.22423e-08
1.5948e-05
1.67296e-05
-6.80923e-09
1.67271e-05
-1.28551e-08
1.67209e-05
-2.25673e-08
1.67188e-05
-2.52798e-08
1.6717e-05
1.26757e-10
1.67111e-05
6.64922e-09
1.6707e-05
1.38291e-08
1.67083e-05
2.58693e-08
1.67106e-05
3.6419e-08
1.67099e-05
3.81663e-08
1.67077e-05
3.93767e-08
1.67059e-05
4.1754e-08
1.67044e-05
4.28553e-08
1.67032e-05
4.23309e-08
1.67031e-05
4.46206e-08
1.67045e-05
4.90969e-08
1.67065e-05
5.25624e-08
1.67082e-05
5.31632e-08
1.67099e-05
5.12616e-08
4.98875e-08
1.67123e-05
1.75292e-05
-5.6584e-09
1.75273e-05
-1.09869e-08
1.75211e-05
-1.63513e-08
1.75176e-05
-2.17078e-08
1.75163e-05
1.35752e-09
1.7512e-05
1.09541e-08
1.75077e-05
1.81701e-08
1.75074e-05
2.61715e-08
1.75089e-05
3.48842e-08
1.7509e-05
3.80601e-08
1.75075e-05
4.08925e-08
1.75059e-05
4.3383e-08
1.75046e-05
4.41745e-08
1.75035e-05
4.33617e-08
1.75036e-05
4.45098e-08
1.75049e-05
4.77991e-08
1.75071e-05
5.04388e-08
1.7509e-05
5.1203e-08
1.75107e-05
4.95354e-08
4.76265e-08
1.7513e-05
1.83671e-05
-4.39203e-09
1.83656e-05
-9.46383e-09
1.83598e-05
-1.06213e-08
1.83551e-05
-1.69605e-08
1.83536e-05
2.79413e-09
1.83507e-05
1.38712e-08
1.83467e-05
2.21463e-08
1.83452e-05
2.77298e-08
1.83457e-05
3.438e-08
1.83461e-05
3.76945e-08
1.83453e-05
4.16529e-08
1.83441e-05
4.45597e-08
1.8343e-05
4.53249e-08
1.83421e-05
4.42155e-08
1.83423e-05
4.43473e-08
1.83436e-05
4.64838e-08
1.83457e-05
4.83697e-08
1.83479e-05
4.89495e-08
1.83498e-05
4.76778e-08
4.54797e-08
1.83519e-05
1.92451e-05
-3.10459e-09
1.92436e-05
-7.99338e-09