/*--------------------------------*- C++ -*----------------------------------*\
| =========                 |                                                 |
| \\      /  F ield         | OpenFOAM: The Open Source CFD Toolbox           |
|  \\    /   O peration     | Version:  3.0.1                                 |
|   \\  /    A nd           | Web:      www.OpenFOAM.org                      |
|    \\/     M anipulation  |                                                 |
\*---------------------------------------------------------------------------*/
FoamFile
{
    version     2.0;
    format      ascii;
    class       volVectorField;
    location    "1.9";
    object      U;
}
// * * * * * * * * * * * * * * * * * * * * * * * * * * * * * * * * * * * * * //

dimensions      [0 1 -1 0 0 0 0];

internalField   nonuniform List<vector> 
9600
(
(0.847567 -0.00263324 0)
(1.16065 0.00464258 0)
(0.856502 -0.0012738 0)
(1.09923 -0.00353265 0)
(0.880471 -0.00522621 0)
(1.1887 -0.00293888 0)
(0.890015 0.0034532 0)
(1.1151 0.0115073 0)
(0.910099 0.00612922 0)
(1.06706 -0.00235021 0)
(0.89582 -0.000529746 0)
(1.10145 -0.0151791 0)
(0.879966 -0.0022962 0)
(1.13398 -0.0117817 0)
(0.858328 -0.00705576 0)
(1.15271 -0.00415356 0)
(0.854466 -0.00120856 0)
(1.14657 0.00439752 0)
(0.853717 0.00768115 0)
(1.12591 0.00960948 0)
(0.858494 -0.00277207 0)
(1.15015 0.00469024 0)
(0.873984 -0.00092519 0)
(1.08775 -0.00353649 0)
(0.89513 -0.00634982 0)
(1.17452 -0.00280383 0)
(0.905934 0.0040215 0)
(1.09929 0.0114836 0)
(0.93326 0.00656457 0)
(1.04781 -0.00189441 0)
(0.924525 -0.00134594 0)
(1.06997 -0.0145814 0)
(0.913087 -0.00337584 0)
(1.09199 -0.0110463 0)
(0.906192 -0.00787238 0)
(1.098 -0.00392083 0)
(0.923082 -0.00101881 0)
(1.06822 0.00370778 0)
(0.955308 0.00960973 0)
(1.00644 0.00804094 0)
(0.878775 -0.00290858 0)
(1.12883 0.00474235 0)
(0.9019 -0.000578356 0)
(1.06742 -0.00362209 0)
(0.919633 -0.00727942 0)
(1.14614 -0.00276289 0)
(0.936492 0.00468551 0)
(1.07203 0.0113704 0)
(0.964332 0.00709139 0)
(1.02529 -0.00172053 0)
(0.95774 -0.00174547 0)
(1.03675 -0.014338 0)
(0.953027 -0.00388365 0)
(1.04923 -0.0109235 0)
(0.960095 -0.00794155 0)
(1.04472 -0.00434198 0)
(0.980409 -0.000385172 0)
(1.01856 0.00322781 0)
(0.9952 0.0106016 0)
(0.989383 0.0088002 0)
(0.904978 -0.00300354 0)
(1.10004 0.0046891 0)
(0.932641 -0.000236823 0)
(1.04333 -0.0036799 0)
(0.946361 -0.00801775 0)
(1.10897 -0.00284917 0)
(0.969924 0.00533006 0)
(1.04585 0.0112129 0)
(0.989536 0.00752431 0)
(1.01042 -0.00159729 0)
(0.981338 -0.00187922 0)
(1.01434 -0.0142345 0)
(0.979618 -0.00410585 0)
(1.02282 -0.0111044 0)
(0.990565 -0.00776954 0)
(1.01858 -0.00481976 0)
(1.00344 0.000134873 0)
(1.00761 0.0032092 0)
(1.00212 0.0109453 0)
(0.997506 0.00996387 0)
(0.932374 -0.00306213 0)
(1.06937 0.0045546 0)
(0.959773 0.000116664 0)
(1.02194 -0.00372742 0)
(0.968219 -0.0086066 0)
(1.07158 -0.00307543 0)
(0.995101 0.00586816 0)
(1.02851 0.0111147 0)
(1.00452 0.00786067 0)
(1.00477 -0.0014398 0)
(0.994103 -0.00189793 0)
(1.00386 -0.0141486 0)
(0.99152 -0.00430341 0)
(1.01041 -0.0113058 0)
(1.0008 -0.00763796 0)
(1.00933 -0.00515082 0)
(1.00811 0.000419748 0)
(1.00723 0.00328665 0)
(1.00406 0.0111105 0)
(1.00202 0.0108993 0)
(0.956507 -0.00308604 0)
(1.04241 0.00439774 0)
(0.979731 0.000429874 0)
(1.0076 -0.00375963 0)
(0.982216 -0.00902632 0)
(1.04078 -0.00336322 0)
(1.00793 0.00621391 0)
(1.01962 0.0111052 0)
(1.01142 0.0081033 0)
(1.00441 -0.00127365 0)
(1.00045 -0.00183936 0)
(1.00067 -0.0140365 0)
(0.995411 -0.00447641 0)
(1.0047 -0.0114434 0)
(1.00179 -0.00760857 0)
(1.0048 -0.00535102 0)
(1.00665 0.000463925 0)
(1.00577 0.00337034 0)
(1.00456 0.0111741 0)
(1.00341 0.011625 0)
(0.974678 -0.00308038 0)
(1.0225 0.00425011 0)
(0.992214 0.000661999 0)
(1.00082 -0.00375451 0)
(0.989476 -0.00926975 0)
(1.01907 -0.00364942 0)
(1.01045 0.0063443 0)
(1.01496 0.0111246 0)
(1.01368 0.00826065 0)
(1.00562 -0.0011157 0)
(1.00393 -0.00173481 0)
(1.00072 -0.0138805 0)
(0.996534 -0.00458636 0)
(1.00163 -0.011536 0)
(0.999973 -0.00758728 0)
(1.00091 -0.00548335 0)
(1.00336 0.000375748 0)
(1.00271 0.00351902 0)
(1.0031 0.0110565 0)
(1.00306 0.0122118 0)
(0.986453 -0.00305561 0)
(1.01003 0.00412341 0)
(0.998962 0.000805388 0)
(0.99935 -0.00371062 0)
(0.992823 -0.00935818 0)
(1.00546 -0.00389532 0)
(1.00708 0.00630915 0)
(1.01126 0.0111065 0)
(1.01364 0.00834413 0)
(1.0067 -0.000982994 0)
(1.00609 -0.00161737 0)
(1.00182 -0.0136755 0)
(0.997103 -0.00464375 0)
(0.999793 -0.0115496 0)
(0.997774 -0.00753899 0)
(0.997325 -0.00556764 0)
(0.999578 0.000252823 0)
(0.999089 0.00369819 0)
(1.00035 0.0107644 0)
(1.00142 0.0127048 0)
(0.993063 -0.00302052 0)
(1.00331 0.00401665 0)
(1.00214 0.000872356 0)
(1.00036 -0.00364415 0)
(0.994579 -0.00932294 0)
(0.997622 -0.00407622 0)
(1.00173 0.00618239 0)
(1.00752 0.0110207 0)
(1.01254 0.00835664 0)
(1.00724 -0.000889473 0)
(1.00741 -0.0015043 0)
(1.00302 -0.0134334 0)
(0.997611 -0.0046577 0)
(0.998734 -0.0114711 0)
(0.99592 -0.00746914 0)
(0.99431 -0.00555962 0)
(0.995952 0.000110468 0)
(0.995494 0.00387649 0)
(0.997148 0.0103814 0)
(0.999012 0.0131144 0)
(0.996333 -0.00297962 0)
(1.00013 0.00392173 0)
(1.00341 0.000884674 0)
(1.00183 -0.00357185 0)
(0.99585 -0.00919612 0)
(0.993455 -0.00418307 0)
(0.996788 0.00602178 0)
(1.00405 0.0108646 0)
(1.01111 0.0083023 0)
(1.00733 -0.000835847 0)
(1.00807 -0.00140515 0)
(1.00397 -0.0131637 0)
(0.998003 -0.0046406 0)
(0.998179 -0.0113108 0)
(0.994558 -0.00738031 0)
(0.99202 -0.00543282 0)
(0.992873 -6.24738e-05 0)
(0.99227 0.0040737 0)
(0.994043 0.00997217 0)
(0.99638 0.0134088 0)
(0.997827 -0.00293476 0)
(0.998748 0.00383127 0)
(1.00375 0.000863227 0)
(1.00287 -0.00350377 0)
(0.996893 -0.00900773 0)
(0.991481 -0.00422545 0)
(0.993227 0.00585867 0)
(1.00132 0.0106506 0)
(1.00978 0.0081912 0)
(1.00715 -0.000814341 0)
(1.00824 -0.00132457 0)
(1.00461 -0.0128699 0)
(0.998205 -0.00461161 0)
(0.997904 -0.0110741 0)
(0.993659 -0.00728532 0)
(0.990445 -0.0052039 0)
(0.990558 -0.000249632 0)
(0.989662 0.00430768 0)
(0.991403 0.00957147 0)
(0.993964 0.0135595 0)
(0.998524 -0.00288675 0)
(0.998156 0.00374163 0)
(1.00366 0.000825152 0)
(1.00335 -0.00344476 0)
(0.99768 -0.00878234 0)
(0.990743 -0.00421564 0)
(0.991118 0.00570605 0)
(0.999518 0.0103963 0)
(1.00876 0.00803785 0)
(1.00687 -0.000813744 0)
(1.00809 -0.00126175 0)
(1.00494 -0.0125544 0)
(0.998231 -0.00458477 0)
(0.99774 -0.0107714 0)
(0.993142 -0.00719134 0)
(0.989479 -0.00489113 0)
(0.989055 -0.000411645 0)
(0.987805 0.00456756 0)
(0.989444 0.00921416 0)
(0.992064 0.0135613 0)
(0.998899 -0.00283612 0)
(0.997895 0.00365157 0)
(1.00344 0.000781341 0)
(1.00341 -0.0033951 0)
(0.998194 -0.00853647 0)
(0.990638 -0.00417162 0)
(0.990126 0.00556562 0)
(0.998502 0.0101168 0)
(1.00807 0.0078572 0)
(1.00659 -0.000822503 0)
(1.00779 -0.00121418 0)
(1.00506 -0.0122173 0)
(0.998158 -0.00456788 0)
(0.997587 -0.010413 0)
(0.992907 -0.00710916 0)
(0.988974 -0.00450937 0)
(0.988269 -0.000566402 0)
(0.9867 0.00482189 0)
(0.98823 0.00893542 0)
(0.990822 0.0134238 0)
(0.999137 -0.00278319 0)
(0.99778 0.00356012 0)
(1.00322 0.000737836 0)
(1.00326 -0.00335242 0)
(0.998486 -0.00827953 0)
(0.990804 -0.00411317 0)
(0.989838 0.00543391 0)
(0.99803 0.00982199 0)
(1.00763 0.00765934 0)
(1.00634 -0.000831068 0)
(1.00746 -0.0011808 0)
(1.00504 -0.0118551 0)
(0.998063 -0.00456716 0)
(0.997411 -0.0100068 0)
(0.992862 -0.00704789 0)
(0.98878 -0.00407469 0)
(0.988023 -0.000707011 0)
(0.986235 0.00504053 0)
(0.98768 0.00875862 0)
(0.990221 0.0131652 0)
(0.999306 -0.00272804 0)
(0.997736 0.00346595 0)
(1.00306 0.000697896 0)
(1.00303 -0.00331483 0)
(0.998634 -0.00801606 0)
(0.991052 -0.00404811 0)
(0.989927 0.00530781 0)
(0.997876 0.0095179 0)
(1.00736 0.00744971 0)
(1.00612 -0.000833567 0)
(1.00715 -0.00116066 0)
(1.00494 -0.0114639 0)
(0.997999 -0.00458731 0)
(0.997219 -0.0095619 0)
(0.992934 -0.00700025 0)
(0.98878 -0.00361054 0)
(0.988123 -0.000791178 0)
(0.986235 0.00519719 0)
(0.987626 0.00868504 0)
(0.990132 0.0128142 0)
(0.99943 -0.00267063 0)
(0.997726 0.00336775 0)
(1.00294 0.000662857 0)
(1.00279 -0.00328085 0)
(0.998707 -0.00774712 0)
(0.991305 -0.00398164 0)
(0.990186 0.00518306 0)
(0.99788 0.00920795 0)
(1.00718 0.00723008 0)
(1.00592 -0.000825377 0)
(1.00688 -0.00115481 0)
(1.00482 -0.0110429 0)
(0.997983 -0.00462873 0)
(0.997033 -0.00907901 0)
(0.993077 -0.00696764 0)
(0.988896 -0.00315164 0)
(0.988413 -0.000821145 0)
(0.986528 0.00527038 0)
(0.98788 0.00869515 0)
(0.990378 0.01241 0)
(0.999524 -0.00261082 0)
(0.997735 0.00326443 0)
(1.00285 0.000633106 0)
(1.00258 -0.00324926 0)
(0.998746 -0.00747345 0)
(0.991547 -0.00391551 0)
(0.990502 0.00505621 0)
(0.997948 0.00889424 0)
(1.00702 0.00700036 0)
(1.00573 -0.000803809 0)
(1.00663 -0.00116396 0)
(1.0047 -0.0105963 0)
(0.99801 -0.00468379 0)
(0.996872 -0.00857024 0)
(0.993266 -0.00693817 0)
(0.989084 -0.00271256 0)
(0.988788 -0.000794827 0)
(0.986983 0.00525897 0)
(0.988288 0.00875754 0)
(0.990797 0.0119915 0)
(0.999591 -0.0025484 0)
(0.997758 0.00315526 0)
(1.00277 0.00060856 0)
(1.0024 -0.00321948 0)
(0.998769 -0.00719487 0)
(0.991788 -0.00385068 0)
(0.990827 0.00492525 0)
(0.998029 0.00857901 0)
(1.00686 0.00676023 0)
(1.00553 -0.00076684 0)
(1.00638 -0.00118816 0)
(1.00458 -0.0101261 0)
(0.998066 -0.00475005 0)
(0.996741 -0.00804259 0)
(0.993488 -0.0068998 0)
(0.989322 -0.00231068 0)
(0.989189 -0.000702548 0)
(0.987516 0.00517526 0)
(0.988746 0.00883494 0)
(0.991273 0.0115877 0)
(0.999632 -0.00248326 0)
(0.997799 0.00303993 0)
(1.00268 0.000589234 0)
(1.00225 -0.00319146 0)
(0.998777 -0.00691181 0)
(0.992041 -0.00378671 0)
(0.99114 0.00479009 0)
(0.998107 0.00826383 0)
(1.00667 0.00650681 0)
(1.00533 -0.000713248 0)
(1.00612 -0.00122743 0)
(1.00447 -0.00963744 0)
(0.998138 -0.00482183 0)
(0.996641 -0.00750741 0)
(0.99373 -0.00683762 0)
(0.989601 -0.00196031 0)
(0.989589 -0.000532603 0)
(0.988084 0.00503962 0)
(0.989202 0.00889721 0)
(0.991738 0.0112201 0)
(0.999645 -0.00241546 0)
(0.997861 0.00291866 0)
(1.00257 0.00057456 0)
(1.00213 -0.00316385 0)
(0.998769 -0.00662667 0)
(0.992313 -0.00372062 0)
(0.991439 0.00464907 0)
(0.998179 0.00795157 0)
(1.00645 0.00623906 0)
(1.00512 -0.000645079 0)
(1.00584 -0.00127839 0)
(1.00436 -0.00913669 0)
(0.998213 -0.00488603 0)
(0.996566 -0.00698706 0)
(0.993984 -0.00672967 0)
(0.989919 -0.00166375 0)
(0.989975 -0.000298917 0)
(0.988669 0.00487078 0)
(0.989639 0.00892314 0)
(0.992166 0.010902 0)
(0.999632 -0.00234487 0)
(0.997946 0.00279139 0)
(1.00245 0.000564081 0)
(1.00204 -0.0031361 0)
(0.998744 -0.00633945 0)
(0.992606 -0.00365234 0)
(0.991725 0.00449852 0)
(0.998253 0.00764576 0)
(1.00621 0.00595732 0)
(1.00492 -0.00056332 0)
(1.00555 -0.00133705 0)
(1.00426 -0.00863117 0)
(0.998285 -0.00493749 0)
(0.996511 -0.00648288 0)
(0.994238 -0.00657664 0)
(0.990273 -0.00142214 0)
(0.990344 -2.26352e-05 0)
(0.989264 0.00468402 0)
(0.99006 0.00890044 0)
(0.992553 0.0106416 0)
(0.999596 -0.00227146 0)
(0.998051 0.00265843 0)
(1.0023 0.000557186 0)
(1.00197 -0.00310715 0)
(0.998707 -0.00605111 0)
(0.992913 -0.00358082 0)
(0.992001 0.00433595 0)
(0.998332 0.00734981 0)
(1.00595 0.00565958 0)
(1.00472 -0.000470115 0)
(1.00524 -0.00139689 0)
(1.00417 -0.00813477 0)
(0.998353 -0.00496473 0)
(0.996471 -0.00600332 0)
(0.994486 -0.00637996 0)
(0.99066 -0.00121552 0)
(0.990697 0.000283392 0)
(0.989866 0.0044943 0)
(0.990479 0.0088226 0)
(0.992905 0.0104379 0)
(0.999548 -0.00219579 0)
(0.998167 0.00252086 0)
(1.00215 0.000552772 0)
(1.00192 -0.00307467 0)
(0.998665 -0.00576545 0)
(0.993228 -0.00350156 0)
(0.99227 0.00416262 0)
(0.998416 0.00706287 0)
(1.00569 0.00535201 0)
(1.00453 -0.000371829 0)
(1.00493 -0.00145061 0)
(1.00408 -0.0076561 0)
(0.99842 -0.00496183 0)
(0.996443 -0.00555216 0)
(0.994727 -0.00614007 0)
(0.991074 -0.00105282 0)
(0.991037 0.000603641 0)
(0.990469 0.00431455 0)
(0.990909 0.00868461 0)
(0.993229 0.0102726 0)
(0.999497 -0.00211735 0)
(0.998287 0.00237819 0)
(1.00199 0.000548268 0)
(1.00187 -0.00303841 0)
(0.998628 -0.005486 0)
(0.993543 -0.00341329 0)
(0.992536 0.00397796 0)
(0.9985 0.00678417 0)
(1.00543 0.0050372 0)
(1.00434 -0.000272924 0)
(1.00463 -0.00149253 0)
(1.00399 -0.00719954 0)
(0.998491 -0.00492661 0)
(0.996424 -0.00512382 0)
(0.99496 -0.00585847 0)
(0.991511 -0.000929578 0)
(0.99137 0.000929864 0)
(0.991066 0.00415968 0)
(0.99136 0.00848824 0)
(0.99353 0.0101223 0)
(0.999454 -0.00203643 0)
(0.998401 0.00223167 0)
(1.00183 0.000544916 0)
(1.00181 -0.00299631 0)
(0.998606 -0.00521412 0)
(0.993852 -0.00331558 0)
(0.992801 0.00377918 0)
(0.998579 0.00651414 0)
(1.00517 0.00471585 0)
(1.00416 -0.000181175 0)
(1.00432 -0.00151403 0)
(1.00389 -0.00676374 0)
(0.998571 -0.00486049 0)
(0.996412 -0.0047153 0)
(0.995187 -0.00554003 0)
(0.991966 -0.000824514 0)
(0.991702 0.00125447 0)
(0.991645 0.0040358 0)
(0.991833 0.00824057 0)
(0.993813 0.00997424 0)
(0.999426 -0.00195404 0)
(0.998504 0.00208383 0)
(1.00169 0.000541674 0)
(1.00174 -0.00294537 0)
(0.998604 -0.00495048 0)
(0.994152 -0.00320721 0)
(0.993069 0.0035684 0)
(0.998646 0.00624763 0)
(1.00492 0.00439604 0)
(1.00396 -9.9972e-05 0)
(1.00402 -0.00151389 0)
(1.00379 -0.00634769 0)
(0.998663 -0.00476559 0)
(0.996406 -0.00432801 0)
(0.99541 -0.00519159 0)
(0.992435 -0.000738646 0)
(0.992037 0.00156621 0)
(0.992199 0.00393928 0)
(0.99233 0.00794588 0)
(0.994083 0.00982908 0)
(0.999415 -0.00186985 0)
(0.998594 0.00193588 0)
(1.00155 0.000533234 0)
(1.00166 -0.00288745 0)
(0.998621 -0.0046948 0)
(0.994445 -0.00309012 0)
(0.993341 0.00335026 0)
(0.998702 0.00598231 0)
(1.00467 0.0040819 0)
(1.00377 -3.14661e-05 0)
(1.00373 -0.0014919 0)
(1.00368 -0.00595417 0)
(0.998768 -0.00464497 0)
(0.996408 -0.00395627 0)
(0.995631 -0.00482408 0)
(0.992915 -0.000668384 0)
(0.99238 0.00185922 0)
(0.992721 0.00387636 0)
(0.99285 0.00760091 0)
(0.994348 0.00968211 0)
(0.999419 -0.00178432 0)
(0.998673 0.00178796 0)
(1.00143 0.000520168 0)
(1.00157 -0.00282159 0)
(0.998655 -0.00445043 0)
(0.99473 -0.00296191 0)
(0.993619 0.00312716 0)
(0.998747 0.0057147 0)
(1.00442 0.00377772 0)
(1.00356 2.15642e-05 0)
(1.00345 -0.00145095 0)
(1.00355 -0.0055791 0)
(0.998887 -0.00450375 0)
(0.996419 -0.00359153 0)
(0.995848 -0.00443565 0)
(0.993405 -0.000606767 0)
(0.992734 0.00212677 0)
(0.993204 0.00386242 0)
(0.993389 0.00721163 0)
(0.99462 0.00950393 0)
(0.999435 -0.00169752 0)
(0.998744 0.00164091 0)
(1.00131 0.000500041 0)
(1.00147 -0.00274459 0)
(0.998698 -0.0042176 0)
(0.995011 -0.00282787 0)
(0.993905 0.00290507 0)
(0.998784 0.00544138 0)
(1.00417 0.00348483 0)
(1.00336 5.98611e-05 0)
(1.00317 -0.00139538 0)
(1.00342 -0.00521929 0)
(0.999017 -0.0043437 0)
(0.996443 -0.00323372 0)
(0.996058 -0.0040212 0)
(0.993904 -0.000549005 0)
(0.993103 0.00235639 0)
(0.993646 0.0039005 0)
(0.993936 0.00680477 0)
(0.994918 0.00924954 0)
(0.999457 -0.00161034 0)
(0.998811 0.00149802 0)
(1.0012 0.00047217 0)
(1.00136 -0.00266006 0)
(0.998744 -0.00399249 0)
(0.995288 -0.00269426 0)
(0.994198 0.00268845 0)
(0.998816 0.00516478 0)
(1.00394 0.00320405 0)
(1.00315 8.33817e-05 0)
(1.00291 -0.00132181 0)
(1.00327 -0.00487486 0)
(0.999156 -0.00417158 0)
(0.996483 -0.0028851 0)
(0.99626 -0.00358969 0)
(0.994407 -0.000492239 0)
(0.99349 0.00253423 0)
(0.994047 0.00397784 0)
(0.994473 0.00642039 0)
(0.995256 0.00889452 0)
(0.999482 -0.00152294 0)
(0.998875 0.00135943 0)
(1.0011 0.000439724 0)
(1.00125 -0.00257312 0)
(0.998789 -0.0037729 0)
(0.995561 -0.00256175 0)
(0.994497 0.00247847 0)
(0.998847 0.00488408 0)
(1.00371 0.00293411 0)
(1.00295 9.3257e-05 0)
(1.00264 -0.00122667 0)
(1.00312 -0.00453752 0)
(0.999301 -0.00398883 0)
(0.996541 -0.00254169 0)
(0.996448 -0.00314581 0)
(0.994909 -0.000433682 0)
(0.993898 0.00265723 0)
(0.994413 0.00407684 0)
(0.994983 0.0060998 0)
(0.995639 0.00846055 0)
(0.999508 -0.00143536 0)
(0.998939 0.00122567 0)
(1.001 0.000404149 0)
(1.00115 -0.0024852 0)
(0.99883 -0.00355433 0)
(0.995826 -0.00243731 0)
(0.9948 0.00227431 0)
(0.998876 0.00459854 0)
(1.00348 0.00267291 0)
(1.00275 9.06853e-05 0)
(1.00239 -0.00111659 0)
(1.00297 -0.00420212 0)
(0.99945 -0.0037957 0)
(0.996619 -0.00220467 0)
(0.996622 -0.0026899 0)
(0.995405 -0.000368192 0)
(0.994329 0.00273056 0)
(0.994755 0.00417362 0)
(0.995453 0.00585481 0)
(0.996052 0.00799584 0)
(0.999535 -0.00134851 0)
(0.999001 0.00109723 0)
(1.00091 0.000366632 0)
(1.00105 -0.002398 0)
(0.998868 -0.00333155 0)
(0.996084 -0.00232195 0)
(0.995104 0.00207959 0)
(0.998905 0.00431691 0)
(1.00327 0.00242521 0)
(1.00257 8.03022e-05 0)
(1.00214 -0.000995322 0)
(1.00281 -0.00386603 0)
(0.999604 -0.00360081 0)
(0.996717 -0.00188016 0)
(0.996779 -0.00223451 0)
(0.995886 -0.000295581 0)
(0.99478 0.0027576 0)
(0.995084 0.00424936 0)
(0.995879 0.00566699 0)
(0.99648 0.00754536 0)
(0.999561 -0.00126122 0)
(0.999063 0.000971414 0)
(1.00081 0.000327133 0)
(1.00095 -0.00232021 0)
(0.998904 -0.00310577 0)
(0.996334 -0.00221134 0)
(0.995406 0.00189031 0)
(0.998932 0.00404997 0)
(1.00306 0.00218473 0)
(1.00239 5.91406e-05 0)
(1.00191 -0.000863443 0)
(1.00264 -0.00351926 0)
(0.999761 -0.00339484 0)
(0.996838 -0.00157179 0)
(0.996918 -0.0017808 0)
(0.996347 -0.000207972 0)
(0.995249 0.00274441 0)
(0.995406 0.00430249 0)
(0.996261 0.00551307 0)
(0.996903 0.0071314 0)
(0.999587 -0.00117453 0)
(0.999124 0.000848108 0)
(1.00072 0.000290129 0)
(1.00086 -0.00225608 0)
(0.99894 -0.00288092 0)
(0.996575 -0.00210308 0)
(0.995705 0.00169332 0)
(0.998955 0.00379257 0)
(1.00285 0.00195705 0)
(1.00223 2.16639e-05 0)
(1.00169 -0.000721841 0)
(1.00248 -0.00316196 0)
(0.99992 -0.00317424 0)
(0.996984 -0.00129057 0)
(0.997042 -0.00133036 0)
(0.996781 -0.000102554 0)
(0.995732 0.00269458 0)
(0.995728 0.00433545 0)
(0.996602 0.00538291 0)
(0.997307 0.0067588 0)
(0.999613 -0.00108748 0)
(0.999184 0.0007244 0)
(1.00063 0.000261185 0)
(1.00078 -0.00220549 0)
(0.998977 -0.00266096 0)
(0.996807 -0.00198861 0)
(0.995999 0.00149124 0)
(0.998978 0.00354197 0)
(1.00265 0.0017559 0)
(1.00209 -2.68312e-05 0)
(1.00148 -0.000576438 0)
(1.0023 -0.00279447 0)
(1.00008 -0.00294825 0)
(0.997154 -0.00104913 0)
(0.997153 -0.000897597 0)
(0.997181 2.49224e-05 0)
(0.996228 0.00261361 0)
(0.996055 0.00434517 0)
(0.996906 0.00527619 0)
(0.997684 0.00642649 0)
(0.999637 -0.00100125 0)
(0.999244 0.000600689 0)
(1.00054 0.00024197 0)
(1.00069 -0.00216606 0)
(0.999016 -0.00245443 0)
(0.997028 -0.00185823 0)
(0.996287 0.00128676 0)
(0.998999 0.00329946 0)
(1.00245 0.00158366 0)
(1.00195 -7.64048e-05 0)
(1.0013 -0.000442034 0)
(1.00213 -0.0024155 0)
(1.00022 -0.0027166 0)
(0.997349 -0.00085114 0)
(0.997259 -0.000496019 0)
(0.997543 0.000179086 0)
(0.996728 0.00250885 0)
(0.996396 0.00432217 0)
(0.997178 0.00518918 0)
(0.998024 0.00613161 0)
(0.999661 -0.000914624 0)
(0.999304 0.000475936 0)
(1.00046 0.000231261 0)
(1.00061 -0.0021292 0)
(0.99906 -0.00227136 0)
(0.997237 -0.00170722 0)
(0.996568 0.00108295 0)
(0.999023 0.00306193 0)
(1.00225 0.00145799 0)
(1.00183 -0.000109773 0)
(1.00113 -0.000321326 0)
(1.00195 -0.0020417 0)
(1.00036 -0.00247588 0)
(0.997566 -0.000690491 0)
(0.997366 -0.000129429 0)
(0.997864 0.000357719 0)
(0.997228 0.00239331 0)
(0.996755 0.00426024 0)
(0.997424 0.00511846 0)
(0.998323 0.00587702 0)
(0.999683 -0.000828747 0)
(0.999363 0.000350374 0)
(1.00037 0.00022653 0)
(1.00054 -0.00209035 0)
(0.999109 -0.00211854 0)
(0.997435 -0.00154136 0)
(0.99684 0.000897653 0)
(0.999053 0.00282789 0)
(1.00205 0.00137522 0)
(1.00172 -0.000128443 0)
(1.00099 -0.000222819 0)
(1.00177 -0.00168945 0)
(1.00048 -0.0022232 0)
(0.997805 -0.000557867 0)
(0.997481 0.000192876 0)
(0.998143 0.000558144 0)
(0.997715 0.00228283 0)
(0.997136 0.00415699 0)
(0.997656 0.00505567 0)
(0.99858 0.00566225 0)
(0.999705 -0.00074434 0)
(0.999423 0.00022558 0)
(1.00029 0.000225601 0)
(1.00046 -0.00204162 0)
(0.999167 -0.002005 0)
(0.997623 -0.00136948 0)
(0.997101 0.000742396 0)
(0.99909 0.00258926 0)
(1.00186 0.00132195 0)
(1.00161 -0.000126335 0)
(1.00087 -0.000149384 0)
(1.0016 -0.00136702 0)
(1.00058 -0.00196274 0)
(0.998058 -0.000442664 0)
(0.997609 0.000466381 0)
(0.998382 0.000770947 0)
(0.99818 0.00219008 0)
(0.997541 0.00401414 0)
(0.997883 0.00498607 0)
(0.998796 0.00548206 0)
(0.999726 -0.000660215 0)
(0.999483 0.000100611 0)
(1.00021 0.000223016 0)
(1.00039 -0.00197402 0)
(0.999231 -0.00193192 0)
(0.997804 -0.00120107 0)
(0.997348 0.000626546 0)
(0.999136 0.00234941 0)
(1.00167 0.00129027 0)
(1.0015 -8.96487e-05 0)
(1.00077 -8.74305e-05 0)
(1.00143 -0.00107836 0)
(1.00067 -0.00169772 0)
(0.998322 -0.000334217 0)
(0.997754 0.000698965 0)
(0.998587 0.000984737 0)
(0.998613 0.0021204 0)
(0.997965 0.00383987 0)
(0.998118 0.00489405 0)
(0.998977 0.00533168 0)
(0.999746 -0.000578972 0)
(0.999543 -1.94547e-05 0)
(1.00014 0.000214666 0)
(1.00032 -0.00188604 0)
(0.999303 -0.00188794 0)
(0.997983 -0.00105222 0)
(0.997582 0.000548765 0)
(0.99919 0.00211646 0)
(1.0015 0.00127096 0)
(1.0014 -2.05503e-05 0)
(1.00069 -3.01557e-05 0)
(1.00128 -0.000824931 0)
(1.00074 -0.00143043 0)
(0.998592 -0.000229112 0)
(0.997918 0.000897937 0)
(0.998761 0.00119674 0)
(0.999007 0.00207761 0)
(0.998402 0.00364944 0)
(0.99837 0.00477224 0)
(0.999132 0.00520308 0)
(0.999765 -0.000501128 0)
(0.999603 -0.000133164 0)
(1.00008 0.000200842 0)
(1.00024 -0.00177579 0)
(0.999381 -0.00186538 0)
(0.998163 -0.000934277 0)
(0.997802 0.000500064 0)
(0.999252 0.0018986 0)
(1.00134 0.00126065 0)
(1.00129 7.76467e-05 0)
(1.00061 2.95772e-05 0)
(1.00114 -0.000599467 0)
(1.0008 -0.0011718 0)
(0.998865 -0.000125791 0)
(0.998102 0.00105801 0)
(0.998911 0.00140274 0)
(0.999355 0.00206342 0)
(0.998842 0.00345303 0)
(0.998648 0.00461856 0)
(0.999274 0.00507906 0)
(0.999784 -0.000427018 0)
(0.999663 -0.000237912 0)
(1.00002 0.000170189 0)
(1.00016 -0.00163054 0)
(0.999462 -0.00185803 0)
(0.998347 -0.000851661 0)
(0.99801 0.000473836 0)
(0.999321 0.00170467 0)
(1.0012 0.00124769 0)
(1.00119 0.000184676 0)
(1.00054 0.000100562 0)
(1.00102 -0.000391849 0)
(1.00084 -0.00092017 0)
(0.999136 -1.70443e-05 0)
(0.998306 0.00117931 0)
(0.999044 0.00159552 0)
(0.999653 0.00208327 0)
(0.999275 0.00326207 0)
(0.998953 0.00443858 0)
(0.999416 0.00494907 0)
(0.999802 -0.000358778 0)
(0.999722 -0.000327536 0)
(0.999984 0.000127189 0)
(1.00008 -0.00146316 0)
(0.999542 -0.00183718 0)
(0.998538 -0.000809701 0)
(0.998209 0.000481494 0)
(0.999399 0.00153637 0)
(1.00108 0.00119797 0)
(1.00109 0.000283343 0)
(1.00048 0.000181738 0)
(1.00091 -0.00020655 0)
(1.00088 -0.000684075 0)
(0.999399 8.68447e-05 0)
(0.99853 0.00126781 0)
(0.999172 0.00176183 0)
(0.9999 0.00213602 0)
(0.999686 0.00309072 0)
(0.999284 0.00423631 0)
(0.99957 0.00480741 0)
(0.999819 -0.000297034 0)
(0.99978 -0.000403093 0)
(0.999957 7.23616e-05 0)
(1.00001 -0.00128194 0)
(0.999617 -0.00177872 0)
(0.998739 -0.000778092 0)
(0.998405 0.000524657 0)
(0.999472 0.00139619 0)
(1.00099 0.00110176 0)
(1.00101 0.000356477 0)
(1.00043 0.000273695 0)
(1.00081 -2.90177e-05 0)
(1.00091 -0.000461977 0)
(0.999657 0.000181749 0)
(0.998775 0.0013277 0)
(0.999304 0.00188995 0)
(1.0001 0.00220529 0)
(1.00006 0.00294978 0)
(0.999635 0.0040161 0)
(0.999745 0.00464882 0)
(0.999835 -0.000243604 0)
(0.999835 -0.000457831 0)
(0.999946 -1.6593e-06 0)
(0.999937 -0.0010904 0)
(0.999685 -0.00167238 0)
(0.998949 -0.00075449 0)
(0.998597 0.000553701 0)
(0.999535 0.00127638 0)
(1.0009 0.000989038 0)
(1.00094 0.000395704 0)
(1.00039 0.000371845 0)
(1.00072 0.000150755 0)
(1.00093 -0.000245549 0)
(0.999904 0.000275077 0)
(0.999036 0.00136383 0)
(0.999448 0.00198146 0)
(1.00027 0.00227405 0)
(1.0004 0.00284297 0)
(0.999995 0.00379129 0)
(0.999945 0.00447188 0)
(0.999851 -0.000198743 0)
(0.999886 -0.000491288 0)
(0.99995 -8.7003e-05 0)
(0.999877 -0.000904185 0)
(0.999744 -0.00151657 0)
(0.99916 -0.000761356 0)
(0.998789 0.000540765 0)
(0.999591 0.00118742 0)
(1.00083 0.000890852 0)
(1.0009 0.000411684 0)
(1.00037 0.000458059 0)
(1.00065 0.00032218 0)
(1.00094 -3.76197e-05 0)
(1.00014 0.000371458 0)
(0.999311 0.00138116 0)
(0.999608 0.00203964 0)
(1.00042 0.00233423 0)
(1.00069 0.00276696 0)
(1.00035 0.00357778 0)
(1.00017 0.0042777 0)
(0.999866 -0.000162635 0)
(0.999931 -0.000504134 0)
(0.999969 -0.000178908 0)
(0.999833 -0.000733923 0)
(0.99979 -0.0013292 0)
(0.999365 -0.0007729 0)
(0.998986 0.00049561 0)
(0.999646 0.00113301 0)
(1.00077 0.000831249 0)
(1.00088 0.000411058 0)
(1.00037 0.000516907 0)
(1.00059 0.000477618 0)
(1.00095 0.000168618 0)
(1.00036 0.00047773 0)
(0.999592 0.001392 0)
(0.999787 0.00206699 0)
(1.00055 0.00237936 0)
(1.00094 0.00271327 0)
(1.0007 0.00338225 0)
(1.00043 0.00406772 0)
(0.999881 -0.000135674 0)
(0.999971 -0.000495493 0)
(0.999999 -0.000270914 0)
(0.999807 -0.00059271 0)
(0.999824 -0.0011221 0)
(0.999559 -0.000766157 0)
(0.999191 0.000426565 0)
(0.999708 0.00108758 0)
(1.00071 0.000807437 0)
(1.00086 0.000410487 0)
(1.0004 0.000549293 0)
(1.00056 0.000611433 0)
(1.00095 0.000366772 0)
(1.00055 0.000587823 0)
(0.999873 0.00140097 0)
(0.999982 0.00206955 0)
(1.00068 0.00240285 0)
(1.00114 0.00267423 0)
(1.00101 0.00320721 0)
(1.00071 0.00384311 0)
(0.999895 -0.000116622 0)
(1 -0.000468481 0)
(1.00004 -0.000357966 0)
(0.999802 -0.000484447 0)
(0.99985 -0.000905915 0)
(0.999735 -0.000732107 0)
(0.999401 0.000339086 0)
(0.999782 0.00104006 0)
(1.00065 0.000813335 0)
(1.00086 0.000426323 0)
(1.00045 0.000567822 0)
(1.00056 0.000716121 0)
(1.00095 0.000550995 0)
(1.00073 0.000703198 0)
(1.00015 0.0014124 0)
(1.00019 0.00206163 0)
(1.00081 0.00240834 0)
(1.00132 0.00264583 0)
(1.0013 0.00306383 0)
(1.001 0.00361409 0)
(0.999909 -0.000105063 0)
(1.00003 -0.000425309 0)
(1.00008 -0.000430963 0)
(0.999818 -0.000413183 0)
(0.999871 -0.000691602 0)
(0.999889 -0.000663679 0)
(0.999611 0.000244703 0)
(0.999872 0.000973489 0)
(1.0006 0.000838607 0)
(1.00085 0.000465689 0)
(1.00051 0.000584579 0)
(1.00058 0.000784512 0)
(1.00096 0.00070826 0)
(1.00089 0.000819847 0)
(1.00041 0.0014244 0)
(1.00041 0.00204369 0)
(1.00094 0.0023979 0)
(1.00148 0.00261378 0)
(1.00154 0.0029531 0)
(1.0013 0.00339901 0)
(0.999922 -9.87178e-05 0)
(1.00004 -0.000373751 0)
(1.00012 -0.000479899 0)
(0.999855 -0.000374276 0)
(0.999892 -0.00049345 0)
(1.00002 -0.000561359 0)
(0.999813 0.000161887 0)
(0.999982 0.000882516 0)
(1.00057 0.00086412 0)
(1.00084 0.000531122 0)
(1.00058 0.000611145 0)
(1.00063 0.000834139 0)
(1.00099 0.000833454 0)
(1.00103 0.00092878 0)
(1.00067 0.00143968 0)
(1.00063 0.00201591 0)
(1.00109 0.00237731 0)
(1.00162 0.00257296 0)
(1.00175 0.00286059 0)
(1.00157 0.00321576 0)
(0.999935 -9.5193e-05 0)
(1.00005 -0.000319513 0)
(1.00016 -0.000498489 0)
(0.99991 -0.00036062 0)
(0.999919 -0.000323593 0)
(1.00012 -0.00043509 0)
(0.999999 0.000102706 0)
(1.00011 0.000775698 0)
(1.00056 0.000876947 0)
(1.00084 0.000613573 0)
(1.00065 0.000651908 0)
(1.00069 0.000875268 0)
(1.00102 0.000930002 0)
(1.00116 0.001019 0)
(1.0009 0.00145504 0)
(1.00086 0.00198249 0)
(1.00123 0.00234786 0)
(1.00175 0.00253116 0)
(1.00193 0.00277254 0)
(1.0018 0.00306959 0)
(0.999946 -9.2531e-05 0)
(1.00005 -0.000267173 0)
(1.00019 -0.000482478 0)
(0.999977 -0.000364642 0)
(0.999956 -0.000190121 0)
(1.0002 -0.000298181 0)
(1.00016 7.83451e-05 0)
(1.00024 0.000666871 0)
(1.00057 0.000864375 0)
(1.00083 0.000694393 0)
(1.00071 0.000712813 0)
(1.00076 0.000910993 0)
(1.00107 0.00100787 0)
(1.00128 0.00109186 0)
(1.00112 0.00146162 0)
(1.00109 0.00194388 0)
(1.00139 0.00230478 0)
(1.00188 0.00248712 0)
(1.00209 0.00268222 0)
(1.002 0.0029428 0)
(0.999957 -8.8941e-05 0)
(1.00005 -0.000219916 0)
(1.00022 -0.000436196 0)
(1.00005 -0.00037194 0)
(1 -9.70549e-05 0)
(1.00027 -0.000163431 0)
(1.0003 9.3617e-05 0)
(1.00038 0.00057467 0)
(1.00061 0.000825328 0)
(1.00084 0.000758988 0)
(1.00076 0.00078696 0)
(1.00084 0.000951385 0)
(1.00113 0.0010698 0)
(1.00139 0.00115629 0)
(1.00133 0.00146092 0)
(1.00131 0.00189798 0)
(1.00154 0.00225259 0)
(1.00199 0.00243925 0)
(1.00224 0.00259599 0)
(1.00218 0.0028222 0)
(0.999967 -8.3102e-05 0)
(1.00005 -0.000180615 0)
(1.00023 -0.000372188 0)
(1.00012 -0.000368609 0)
(1.00006 -3.91531e-05 0)
(1.00033 -3.74948e-05 0)
(1.00041 0.000138503 0)
(1.00051 0.000506115 0)
(1.00067 0.000774144 0)
(1.00087 0.000799959 0)
(1.00081 0.000859346 0)
(1.00091 0.00100551 0)
(1.00118 0.00111934 0)
(1.00149 0.00120927 0)
(1.00151 0.00145864 0)
(1.00153 0.00184036 0)
(1.00171 0.00218788 0)
(1.0021 0.00238455 0)
(1.00237 0.00251414 0)
(1.00234 0.00270463 0)
(0.999975 -7.45721e-05 0)
(1.00005 -0.000150761 0)
(1.00023 -0.000299385 0)
(1.00019 -0.00034868 0)
(1.00014 -8.52155e-06 0)
(1.00038 6.74372e-05 0)
(1.00049 0.000204769 0)
(1.00062 0.000471047 0)
(1.00074 0.000725255 0)
(1.00091 0.000812397 0)
(1.00087 0.000914919 0)
(1.00097 0.00106222 0)
(1.00124 0.00117091 0)
(1.00157 0.00125023 0)
(1.00167 0.00145761 0)
(1.00173 0.00178035 0)
(1.00188 0.0021061 0)
(1.00221 0.00232025 0)
(1.00247 0.00243395 0)
(1.00248 0.00258984 0)
(0.999982 -6.3347e-05 0)
(1.00005 -0.000129526 0)
(1.00023 -0.000224843 0)
(1.00025 -0.000307906 0)
(1.00021 8.23711e-06 0)
(1.00044 0.000141744 0)
(1.00056 0.000277927 0)
(1.00071 0.000471397 0)
(1.00082 0.0006896 0)
(1.00097 0.00080887 0)
(1.00094 0.000950738 0)
(1.00104 0.00110668 0)
(1.00129 0.00122388 0)
(1.00165 0.0012886 0)
(1.00181 0.00145286 0)
(1.00192 0.00172631 0)
(1.00205 0.00201364 0)
(1.00232 0.00223975 0)
(1.00256 0.00235465 0)
(1.0026 0.00247621 0)
(0.999989 -5.1092e-05 0)
(1.00005 -0.000112341 0)
(1.00023 -0.000154648 0)
(1.0003 -0.000249806 0)
(1.00029 2.49262e-05 0)
(1.00051 0.000191074 0)
(1.00062 0.000347353 0)
(1.00079 0.000496251 0)
(1.00089 0.000673225 0)
(1.00104 0.000800529 0)
(1.00101 0.000967609 0)
(1.00111 0.00113796 0)
(1.00133 0.00126467 0)
(1.0017 0.00133087 0)
(1.00193 0.00144831 0)
(1.00208 0.0016747 0)
(1.00222 0.00192237 0)
(1.00245 0.00213999 0)
(1.00265 0.00227077 0)
(1.0027 0.00236423 0)
(0.999995 -3.74518e-05 0)
(1.00005 -9.73362e-05 0)
(1.00023 -9.20378e-05 0)
(1.00034 -0.000181521 0)
(1.00036 4.88099e-05 0)
(1.00058 0.000224066 0)
(1.00068 0.000407234 0)
(1.00085 0.000534993 0)
(1.00094 0.000681137 0)
(1.00111 0.000795393 0)
(1.00109 0.000966905 0)
(1.00119 0.00115498 0)