/*--------------------------------*- C++ -*----------------------------------*\
| =========                 |                                                 |
| \\      /  F ield         | OpenFOAM: The Open Source CFD Toolbox           |
|  \\    /   O peration     | Version:  3.0.1                                 |
|   \\  /    A nd           | Web:      www.OpenFOAM.org                      |
|    \\/     M anipulation  |                                                 |
\*---------------------------------------------------------------------------*/
FoamFile
{
    version     2.0;
    format      ascii;
    class       volScalarField;
    location    "1.6";
    object      p;
}
// * * * * * * * * * * * * * * * * * * * * * * * * * * * * * * * * * * * * * //

dimensions      [0 2 -2 0 0 0 0];

internalField   nonuniform List<scalar> 
9600
(
2.77251e-11
0.00117519
0.00159318
0.0010645
0.000643093
0.00320568
0.00246933
0.00130899
0.00234531
0.003382
0.00261238
0.00444376
0.00469593
0.00570888
0.00624607
0.00693762
0.00853613
0.010053
0.0121759
0.0177532
7.80522e-06
0.00117079
0.00159001
0.00107509
0.000651595
0.00318683
0.00246554
0.00130796
0.00234509
0.00338833
0.00261688
0.00442381
0.00469925
0.00569446
0.00624861
0.0069105
0.00853867
0.00996843
0.0121819
0.0171042
1.40893e-05
0.00116601
0.00158824
0.00108498
0.000657513
0.00316056
0.00246223
0.00131287
0.00234707
0.00339369
0.00262151
0.00440413
0.00470631
0.00566853
0.00624932
0.00687477
0.00853386
0.00989405
0.0121536
0.0164496
2.10326e-05
0.00116509
0.00158624
0.00109177
0.000664375
0.00313434
0.00245798
0.00132529
0.00234999
0.00339603
0.00262755
0.00438364
0.00471493
0.00563422
0.00624913
0.00683502
0.00852877
0.00982258
0.0120931
0.0158343
2.96859e-05
0.00116786
0.00158239
0.00109676
0.000675062
0.00310809
0.00245161
0.00134405
0.00235291
0.00339594
0.00263538
0.00436122
0.00472385
0.00559563
0.00625057
0.00679166
0.00852615
0.00974207
0.0120058
0.0152736
4.02966e-05
0.00117332
0.00157622
0.00110084
0.000690235
0.00308123
0.00244359
0.00136689
0.00235588
0.00339402
0.00264438
0.00433638
0.0047328
0.00555592
0.00625244
0.00674602
0.00852273
0.00965275
0.011894
0.0147521
5.26989e-05
0.00118065
0.00156777
0.00110461
0.000709531
0.00305423
0.00243489
0.00139197
0.00235937
0.00339064
0.00265431
0.00431125
0.00474188
0.00551581
0.00625375
0.00669893
0.00851475
0.0095598
0.0117545
0.0142585
6.65733e-05
0.00118906
0.00155749
0.00110857
0.000732217
0.00302753
0.00242623
0.00141809
0.00236387
0.00338611
0.00266511
0.00428515
0.00475111
0.00547526
0.00625425
0.00665032
0.00850026
0.00946557
0.0115839
0.0137892
8.15844e-05
0.00119795
0.00154609
0.00111293
0.000757393
0.00300119
0.00241797
0.00144451
0.0023697
0.00338059
0.00267665
0.00425792
0.00476052
0.00543419
0.00625321
0.00660059
0.00847725
0.00937087
0.0113823
0.0133414
9.7498e-05
0.00120701
0.00153417
0.00111767
0.00078425
0.00297506
0.00241029
0.00147077
0.00237691
0.00337416
0.00268877
0.00422944
0.0047701
0.00539245
0.00624973
0.00655075
0.00844317
0.00927644
0.0111514
0.0129109
0.000114207
0.00121606
0.00152213
0.00112268
0.00081222
0.00294888
0.00240324
0.00149655
0.00238545
0.00336692
0.00270123
0.00419964
0.00477966
0.00535008
0.00624292
0.00650181
0.00839574
0.00918258
0.010894
0.0124919
0.000131693
0.001225
0.00151015
0.0011279
0.000840944
0.00292237
0.00239688
0.00152145
0.00239525
0.00335897
0.00271379
0.00416851
0.00478892
0.00530739
0.00623163
0.00645451
0.00833333
0.00908871
0.0106142
0.0120785
0.000149977
0.00123376
0.00149834
0.00113327
0.000870193
0.00289534
0.00239128
0.00154536
0.00240618
0.00335042
0.0027262
0.00413615
0.00479746
0.00526474
0.0062147
0.00640932
0.00825489
0.00899309
0.0103171
0.0116662
0.000169098
0.00124226
0.00148679
0.00113877
0.000899839
0.0028677
0.00238654
0.00156816
0.00241813
0.00334147
0.00273817
0.00410269
0.00480469
0.00522259
0.00619117
0.00636631
0.00816022
0.00889262
0.0100083
0.0112525
0.000189098
0.00125045
0.00147553
0.00114441
0.000929809
0.00283937
0.00238271
0.00158975
0.00243087
0.00333237
0.00274934
0.0040683
0.00481003
0.00518137
0.00616015
0.00632494
0.00805008
0.00878378
0.00969349
0.0108365
0.000210025
0.00125827
0.00146462
0.00115019
0.000960054
0.00281033
0.00237987
0.0016101
0.00244415
0.00332335
0.00275935
0.00403325
0.00481307
0.00514126
0.0061211
0.00628401
0.00792577
0.00866381
0.00937703
0.0104178
0.000231925
0.00126566
0.00145411
0.00115611
0.000990538
0.00278058
0.00237803
0.0016292
0.00245761
0.00331473
0.00276779
0.00399779
0.00481336
0.00510227
0.00607401
0.00624181
0.00778875
0.0085307
0.0090619
0.00999683
0.000254842
0.00127254
0.00144403
0.00116219
0.00102122
0.00275014
0.00237717
0.00164715
0.00247085
0.00330686
0.00277433
0.00396201
0.00481015
0.00506411
0.00601926
0.00619652
0.00764019
0.00838328
0.00875024
0.00957451
0.000278821
0.00127886
0.00143442
0.00116848
0.00105201
0.00271907
0.00237722
0.00166407
0.00248341
0.00330006
0.00277879
0.00392589
0.00480287
0.00502598
0.00595733
0.00614662
0.0074809
0.00822159
0.00844369
0.00915221
0.000303897
0.00128455
0.00142528
0.00117502
0.00108283
0.00268748
0.0023781
0.00168013
0.00249487
0.00329458
0.00278109
0.00388923
0.00479348
0.00498687
0.00588861
0.00609102
0.00731142
0.00804618
0.0081436
0.00873153
0.000330098
0.00128959
0.00141663
0.0011819
0.00111354
0.0026555
0.00237968
0.00169551
0.0025048
0.00329057
0.00278132
0.00385161
0.00478181
0.00494582
0.00581304
0.00602937
0.00713205
0.0078571
0.00785131
0.00831462
0.000357452
0.00129395
0.00140842
0.00118918
0.00114399
0.00262336
0.00238183
0.00171038
0.00251283
0.00328801
0.00277961
0.00381237
0.0047685
0.00490217
0.00573001
0.00596193
0.0069434
0.00765392
0.00756774
0.00790406
0.000385969
0.00129764
0.00140059
0.001197
0.00117399
0.00259123
0.00238444
0.00172489
0.00251865
0.00328679
0.00277635
0.00377067
0.00475377
0.00485581
0.00563858
0.00588874
0.00674682
0.00743628
0.00729298
0.00750221
0.000415635
0.00130071
0.00139307
0.00120547
0.00120336
0.00255924
0.00238739
0.0017392
0.00252198
0.00328661
0.00277228
0.00372567
0.00473717
0.00480699
0.00553775
0.00580927
0.0065442
0.00720405
0.00702663
0.00711152
0.000446433
0.00130324
0.00138575
0.00121477
0.00123195
0.00252756
0.00239059
0.00175343
0.00252282
0.00328686
0.00276792
0.00367686
0.004718
0.00475604
0.00542664
0.00572265
0.00633775
0.00695746
0.00676836
0.0067354
0.000478334
0.00130534
0.00137844
0.00122508
0.00125961
0.00249634
0.00239405
0.00176757
0.00252133
0.00328689
0.00276361
0.00362394
0.00469531
0.00470324
0.0053046
0.00562775
0.00612994
0.00669701
0.00651712
0.0063785
0.00051127
0.00130718
0.00137094
0.00123648
0.00128629
0.00246569
0.00239785
0.00178127
0.00251754
0.00328638
0.00275961
0.00356682
0.00466805
0.00464876
0.00517122
0.00552344
0.00592354
0.00642345
0.00626972
0.00604632
0.000545137
0.00130899
0.00136311
0.00124901
0.001312
0.00243553
0.00240223
0.00179413
0.00251136
0.00328503
0.00275579
0.00350559
0.00463535
0.00459267
0.00502649
0.00540832
0.0057217
0.00613887
0.0060203
0.00574294
0.000579816
0.00131109
0.00135477
0.00126266
0.00133682
0.0024056
0.00240748
0.001806
0.00250264
0.00328262
0.00275178
0.00343998
0.00459617
0.00453512
0.00487085
0.00528068
0.00552734
0.00584822
0.0057614
0.00546701
0.000615161
0.0013138
0.00134576
0.00127728
0.00136101
0.00237563
0.00241404
0.00181691
0.00249071
0.00327914
0.00274753
0.00336925
0.00454929
0.00447656
0.00470544
0.00513874
0.00534174
0.00555853
0.00548748
0.00520989
0.000650971
0.0013175
0.00133602
0.00129253
0.00138506
0.00234524
0.0024222
0.00182684
0.00247454
0.00327452
0.00274311
0.00329259
0.00449353
0.00441762
0.00453219
0.00498099
0.00516366
0.00527655
0.00519873
0.00495859
0.000687016
0.00132256
0.00132563
0.00130793
0.00140949
0.00231387
0.00243188
0.00183659
0.0024532
0.0032683
0.00273871
0.00320923
0.00442753
0.00435908
0.00435384
0.00480661
0.00499028
0.00500682
0.0049009
0.00470125
0.000723063
0.00132934
0.0013148
0.00132284
0.00143496
0.00228111
0.00244276
0.00184769
0.00242563
0.00325937
0.00273497
0.0031186
0.00434924
0.00430203
0.004174
0.00461519
0.00481837
0.00475121
0.00460102
0.00443238
0.000758881
0.00133814
0.0013039
0.00133635
0.00146224
0.00224705
0.00245397
0.00186173
0.00239117
0.00324578
0.00273277
0.00302074
0.00425604
0.00424731
0.00399723
0.00440645
0.0046445
0.0045106
0.00430409
0.00415297
0.000794262
0.00134916
0.00129354
0.00134739
0.00149172
0.00221202
0.0024641
0.00188077
0.00234994
0.00322459
0.00273249
0.00291672
0.00414575
0.00419443
0.00382863
0.00418091
0.00446481
0.0042866
0.00401365
0.00386579
0.000829027
0.00136249
0.00128463
0.00135494
0.00152329
0.00217681
0.00247146
0.00190589
0.00230294
0.00319259
0.00273349
0.00280936
0.00401764
0.00414081
0.00367277
0.00394096
0.00427459
0.00408037
0.00373386
0.00357257
0.000863021
0.00137813
0.00127823
0.00135811
0.0015562
0.00214284
0.00247435
0.00193699
0.00225186
0.00314711
0.00273501
0.00270264
0.00387199
0.00408237
0.00353277
0.00369104
0.00406809
0.00389013
0.00347129
0.00327557
0.000896144
0.00139591
0.00127558
0.00135627
0.00159041
0.00211169
0.00247133
0.00197426
0.00219892
0.00308659
0.00273602
0.00260074
0.00370995
0.00401379
0.00340999
0.00343749
0.00384007
0.00370993
0.0032332
0.00298049
0.000928374
0.00141543
0.00127785
0.00134923
0.0016238
0.00208476
0.00246143
0.00201771
0.00214665
0.00301119
0.00273417
0.00250675
0.00353406
0.00393008
0.00330358
0.00318758
0.0035882
0.00353028
0.00302359
0.00269759
0.000959766
0.00143621
0.00128592
0.00133753
0.00165166
0.00206282
0.00244414
0.00205563
0.00209763
0.00292236
0.00272918
0.00242277
0.00334875
0.00382814
0.00321046
0.00294812
0.00331463
0.00334069
0.00284016
0.00243881
0.000990489
0.00145764
0.00130043
0.00132248
0.00167289
0.00204582
0.00241932
0.00208886
0.00205446
0.00282326
0.0027113
0.00235002
0.00315854
0.00370632
0.00312612
0.00272476
0.00302525
0.00313296
0.00267485
0.00221233
0.00102081
0.00147895
0.0013218
0.00130602
0.00168544
0.00203292
0.00238749
0.00211439
0.0020184
0.00271868
0.00268183
0.00228454
0.00296641
0.0035635
0.00304575
0.00252217
0.00272776
0.00290297
0.00251676
0.00201916
0.00105106
0.00149934
0.00135005
0.00129059
0.00168745
0.00202244
0.00234974
0.00212895
0.00198944
0.00261343
0.00264035
0.0022239
0.00277484
0.00339943
0.00296426
0.00234386
0.0024305
0.0026499
0.0023553
0.00185401
0.00108163
0.00151808
0.00138475
0.00127865
0.00167832
0.00201217
0.00230736
0.0021303
0.00196602
0.00251098
0.00258838
0.00216704
0.0025864
0.00321504
0.00287585
0.00219128
0.00214256
0.00237556
0.00218223
0.00170848
0.00111292
0.00153453
0.00142486
0.00127238
0.00165778
0.00199949
0.00226233
0.00211789
0.00194434
0.00241697
0.00252886
0.00211271
0.00240357
0.00301248
0.00277415
0.0020622
0.00187369
0.002085
0.00199155
0.00157336
0.00114542
0.0015482
0.00146848
0.0012736
0.00162589
0.00198102
0.00221771
0.0020939
0.00191985
0.00232628
0.00246348
0.0020605
0.00222871
0.00279531
0.00265377
0.00194991
0.00163214
0.0017874
0.00177962
0.00143945
0.00117954
0.00155889
0.00151278
0.00128355
0.00157556
0.00195205
0.00217639
0.00206406
0.00188886
0.00223547
0.00239227
0.00201042
0.00206401
0.00256789
0.00251154
0.00184581
0.00142146
0.0014946
0.00154702
0.00129827
0.00121564
0.00156668
0.00155462
0.00130287
0.00152939
0.00191014
0.00213863
0.00203357
0.00185013
0.00214121
0.00231452
0.00196161
0.00191239
0.00233571
0.00234655
0.00174145
0.0012394
0.00121705
0.00129923
0.00114367
0.00125386
0.00157197
0.0015911
0.00133122
0.00148235
0.00185411
0.00210097
0.00200572
0.00180664
0.0020413
0.00222759
0.00191153
0.00177641
0.00210519
0.00216033
0.00162938
0.00108106
0.000961215
0.00104421
0.000973754
0.00129411
0.00157563
0.00161995
0.00136686
0.00143886
0.00178376
0.00205713
0.00198202
0.00176339
0.00193609
0.00212787
0.00185719
0.00165588
0.00188291
0.00195795
0.00150381
0.000939795
0.000730015
0.000789275
0.000790145
0.00133615
0.00157863
0.00163987
0.00140646
0.001403
0.00170171
0.00200138
0.00196128
0.00172491
0.00182702
0.0020138
0.00179467
0.00154854
0.00167463
0.00174697
0.00136242
0.00080747
0.000523769
0.00054043
0.0005952
0.00137949
0.00158179
0.00165014
0.00144555
0.00137771
0.00161298
0.00192969
0.00193865
0.00169424
0.00172038
0.00188706
0.00171837
0.00145039
0.00148364
0.00153424
0.00120751
0.000677158
0.000340357
0.000303454
0.00039117
0.0014233
0.00158681
0.00165126
0.00147958
0.00136389
0.00152444
0.00184127
0.00190656
0.00167089
0.0016234
0.00175133
0.00162429
0.0013559
0.00131017
0.0013259
0.00104365
0.000545322
0.000175436
8.31891e-05
0.000181019
0.00146658
0.00159419
0.00164494
0.00150506
0.00136008
0.00144292
0.00173754
0.00185804
0.00165196
0.00154007
0.00161258
0.00151314
0.00125764
0.00115121
0.00112678
0.000875414
0.000411724
2.4732e-05
-0.000117356
-3.01498e-05
0.00150831
0.00160415
0.00163323
0.00151959
0.00136303
0.0013732
0.00162319
0.00178884
0.00163092
0.00147113
0.0014789
0.00138905
0.00115027
0.00100195
0.000938168
0.00070681
0.000277101
-0.000114625
-0.000296861
-0.000235226
0.00154763
0.00161632
0.0016188
0.00152199
0.00137003
0.00131758
0.00150685
0.00169825
0.00159842
0.00141457
0.00135723
0.00125717
0.00103324
0.000856991
0.000758699
0.000540691
0.000142338
-0.000245386
-0.000455536
-0.000426763
0.00158291
0.00162992
0.00160413
0.00151282
0.00137234
0.00127609
0.00139679
0.00158878
0.00154633
0.00136555
0.00125151
0.00112506
0.000908731
0.00071328
0.000585638
0.000377776
9.30134e-06
-0.00036999
-0.000595679
-0.000598165
0.00161388
0.00164372
0.00159075
0.00149417
0.00136681
0.00124491
0.00129772
0.00146679
0.00147176
0.00131441
0.00116093
0.00100103
0.000780115
0.000569859
0.000417049
0.000216348
-0.000121048
-0.000489016
-0.000721959
-0.000746457
0.00164015
0.00165619
0.00157944
0.00146887
0.00135098
0.00121878
0.00121207
0.00134124
0.00137643
0.00125174
0.00108114
0.000890365
0.000654304
0.000428344
0.000253104
5.49346e-05
-0.000250582
-0.000601507
-0.00083838
-0.00087422
0.0016617
0.00166613
0.00156987
0.00143994
0.00132434
0.00119153
0.00113936
0.00122044
0.00126404
0.00117291
0.00100472
0.000792084
0.000538123
0.000291958
9.48332e-05
-0.000105341
-0.000382336
-0.000708183
-0.000945625
-0.000986895
0.00167876
0.00167259
0.00156113
0.00140975
0.00128779
0.00115831
0.00107701
0.00110975
0.00114193
0.00107728
0.000924428
0.000703329
0.000434218
0.000166082
-5.49584e-05
-0.000261813
-0.000516998
-0.000812837
-0.00104336
-0.0010884
0.00169145
0.00167488
0.00155167
0.00137942
0.00124329
0.00111679
0.00101959
0.00101036
0.00101943
0.000967719
0.000834704
0.00061956
0.000341698
5.46635e-05
-0.000191803
-0.000410581
-0.00065198
-0.000918984
-0.00113359
-0.00117968
0.0016998
0.00167251
0.00153975
0.00134976
0.0011939
0.00106623
0.000961728
0.000920564
0.000903122
0.000850033
0.00073363
0.000534734
0.000258685
-4.19411e-05
-0.000311466
-0.000546473
-0.0007822
-0.00102602
-0.00121988
-0.00126119
0.00170368
0.00166552
0.0015239
0.00132012
0.00114254
0.00100748
0.000899615
0.00083761
0.000795023
0.000732247
0.000625126
0.00044423
0.000181157
-0.000124947
-0.000412481
-0.000664269
-0.000901294
-0.00112909
-0.00130296
-0.00133372
0.00170286
0.00165405
0.00150314
0.00128917
0.00109088
0.000942358
0.000831172
0.000757328
0.000694365
0.000619122
0.000514517
0.000348747
0.000104487
-0.000196172
-0.000495275
-0.000761469
-0.00100372
-0.00122206
-0.00137916
-0.00139745
0.00169704
0.00163826
0.00147722
0.00125515
0.00103902
0.000872989
0.000755931
0.000675862
0.000599659
0.00051254
0.000406317
0.000252413
2.74192e-05
-0.00025832
-0.000559753
-0.000836883
-0.00108521
-0.0012999
-0.00144499
-0.0014518
0.00168592
0.00161817
0.00144618
0.00121631
0.000985986
0.000801478
0.000674566
0.000590271
0.000508088
0.000412941
0.000303732
0.000158771
-4.75066e-05
-0.000313196
-0.00060645
-0.000888702
-0.00114225
-0.00135663
-0.0014952
-0.00149311
0.00166924
0.00159364
0.00141033
0.00117183
0.000929862
0.000728252
0.00058905
0.000499629
0.000415385
0.000318202
0.000208312
7.08066e-05
-0.00011638
-0.000359185
-0.000635957
-0.000914725
-0.00117068
-0.00138502
-0.00152125
-0.00151424
0.00164685
0.00156431
0.00136999
0.00112222
0.000869091
0.000651632
0.000499597
0.000404414
0.000319757
0.000225342
0.000119426
-9.42714e-06
-0.000176334
-0.000392487
-0.000646419
-0.000911903
-0.00116429
-0.00137654
-0.00151141
-0.0015038
0.0016185
0.00153007
0.00132534
0.00106707
0.000803019
0.000571231
0.000405554
0.000302774
0.00021933
0.000131771
3.49637e-05
-8.11633e-05
-0.000225469
-0.000409834
-0.000633435
-0.000875303
-0.00111405
-0.0013192
-0.00145037
-0.00144405
0.00158419
0.00149062
0.00127698
0.00100667
0.000729955
0.00048545
0.000307402
0.000194078
0.000109982
3.2484e-05
-5.02354e-05
-0.000147472
-0.000263742
-0.000408431
-0.000589169
-0.000794126
-0.00100537
-0.00119391
-0.00131688
-0.00131121
0.001544
0.00144572
0.001224
0.00094126
0.000650649
0.000392546
0.000202355
7.80017e-05
-1.05236e-05
-7.92432e-05
-0.000145377
-0.000218534
-0.000299199
-0.000392238
-0.00050861
-0.000648635
-0.000804364
-0.000959564
-0.00107257
-0.00107516
0.0015006
0.00139622
0.00116413
0.000868585
0.000564993
0.000293803
8.90602e-05
-4.8844e-05
-0.000145281
-0.000209899
-0.000260721
-0.000310033
-0.000353461
-0.000389804
-0.000417374
-0.000433112
-0.000443472
-0.000463661
-0.000495929
-0.000505271
0.00145514
0.0013413
0.00109699
0.000788966
0.000472836
0.000188853
-3.18717e-05
-0.000188281
-0.000297387
-0.000367113
-0.000407994
-0.000432627
-0.000436337
-0.000418451
-0.000398298
-0.00035996
-0.000241847
3.24352e-05
0.000468612
0.000936828
0.00140348
0.00128078
0.00102518
0.000704173
0.000375447
7.91332e-05
-0.00015831
-0.000336967
-0.000468448
-0.000554343
-0.000599509
-0.000616093
-0.000584113
-0.000431703
-7.71743e-05
0.000463717
0.00105734
0.00156662
0.00189634
0.00198111
0.00134579
0.00121894
0.000951124
0.000612742
0.000263357
-4.90374e-05
-0.000293687
-0.000478144
-0.000617675
-0.000708369
-0.000727709
-0.000591528
-0.000253189
0.000185195
0.000612842
0.000976463
0.00126778
0.00149636
0.00164781
0.00167307
0.00128189
0.00115699
0.000889378
0.000538784
0.000153206
-0.000216623
-0.00053253
-0.000759593
-0.000841013
-0.000716465
-0.000428473
-8.75215e-05
0.00024893
0.000570597
0.000889423
0.00121821
0.00154121
0.00182351
0.00200509
0.00200984
0.00120816
0.00106099
0.000794517
0.000466677
0.000126867
-0.000174392
-0.000396274
-0.000524752
-0.000568747
-0.000557505
-0.000522132
-0.00048126
-0.000404945
-0.000214955
0.00014749
0.000707527
0.00136871
0.00195625
0.00232634
0.00238961
0.00116426
0.00102743
0.000734777
0.000354364
-5.76005e-05
-0.000423438
-0.000666978
-0.000736128
-0.000645379
-0.000457732
-0.000205977
9.08382e-05
0.000400289
0.000723185
0.00104959
0.00136211
0.0016425
0.00186209
0.0019805
0.00193008
0.00107711
0.00092584
0.000673682
0.000359762
1.12002e-05
-0.000325963
-0.000600334
-0.000765528
-0.000753802
-0.00055836
-0.000260056
6.35821e-05
0.000341862
0.000578564
0.000812761
0.0010579
0.00130668
0.00152846
0.00167469
0.00166824
0.0183629
0.0124236
0.00417587
-0.00180801
-0.00364266
-0.00310651
-0.00225843
-0.00172352
-0.0015409
-0.0016473
-0.00185235
-0.00197279
-0.00198867
-0.00200224
-0.00205811
-0.00212698
-0.00224714
-0.00240626
-0.00247721
-0.00246163
-0.00246975
-0.00252318
-0.0026002
-0.00267923
-0.00272695
-0.00276285
-0.00284114
-0.00295584
-0.00306082
-0.00314339
-0.00323374
-0.00334989
-0.00346746
-0.0035587
-0.00364041
-0.00374095
-0.00385084
-0.00394917
-0.00403573
-0.00412649
-0.0042248
-0.00432005
-0.00441142
-0.00451597
-0.00464025
-0.00476674
-0.00488627
-0.00500893
-0.00513224
-0.00523944
-0.00534088
-0.00545086
-0.00555706
-0.00566363
-0.00579359
-0.00592708
-0.00604736
-0.00617167
-0.00630106
-0.00641903
-0.00654198
-0.00667376
-0.00680239
-0.00692976
-0.00705835
-0.00718776
-0.00731182
-0.00744127
-0.00758261
-0.00771625
-0.00785371
-0.0079974
-0.00813922
-0.00827988
-0.00842101
-0.00857049
-0.0087234
-0.00888175
-0.00903912
-0.00918607
-0.00934786
-0.00950761
-0.00967227
-0.00984421
-0.0100012
-0.0101836
-0.0103608
-0.0105176
-0.0107136
-0.0108895
-0.0110588
-0.0112517
-0.0114377
-0.0116023
-0.0117946
-0.0119865
-0.0121521
-0.012338
-0.0124858
-0.0126353
0.0175873
0.0122902
0.00427002
-0.00167649
-0.00356171
-0.00306465
-0.00223129
-0.00170448
-0.00152704
-0.0016368
-0.00184417
-0.00196617
-0.00198301
-0.00199723
-0.00205363
-0.00212281
-0.00224329
-0.002403
-0.00247441
-0.00245896
-0.00246722
-0.00252084
-0.00259806
-0.00267732
-0.00272521
-0.00276116
-0.00283952
-0.00295436
-0.00305946
-0.0031421
-0.00323248
-0.0033487
-0.00346636
-0.00355767
-0.00363939
-0.00373997
-0.00384993
-0.00394832
-0.00403492
-0.00412572
-0.00422407
-0.00431937
-0.00441077
-0.00451533
-0.00463965
-0.00476618
-0.00488574
-0.00500842
-0.00513177
-0.00523899
-0.00534045
-0.00545045
-0.00555667
-0.00566325
-0.00579322
-0.00592674
-0.00604704
-0.00617135
-0.00630076
-0.00641874
-0.0065417
-0.00667349
-0.00680213
-0.00692951
-0.00705811
-0.00718753
-0.0073116
-0.00744105
-0.00758241
-0.00771605
-0.00785352
-0.00799721
-0.00813904
-0.00827971
-0.00842084
-0.00857033
-0.00872324
-0.0088816
-0.00903898
-0.00918593
-0.00934772
-0.00950748
-0.00967214
-0.00984409
-0.0100011
-0.0101835
-0.0103607
-0.0105175
-0.0107135
-0.0108894
-0.0110587
-0.0112516
-0.0114376
-0.0116022
-0.0117945
-0.0119864
-0.012152
-0.012338
-0.0124858
-0.0126353
0.016897
0.0122012
0.00448467
-0.00141824
-0.00342288
-0.00301355
-0.00220575
-0.00168379
-0.00150985
-0.00162317
-0.0018333
-0.0019574
-0.00197598
-0.00199168
-0.00204917
-0.00211886
-0.00223961
-0.00239979
-0.00247161
-0.00245638
-0.00246487
-0.00251868
-0.00259604
-0.00267551
-0.00272357
-0.0027596
-0.00283805
-0.00295304
-0.00305825
-0.00314095
-0.00323137
-0.00334766
-0.0034654
-0.00355675
-0.0036385
-0.00373912
-0.00384914
-0.00394758
-0.00403421
-0.00412504
-0.00422344
-0.00431877
-0.00441018
-0.00451477
-0.00463913
-0.00476569
-0.00488528
-0.00500798
-0.00513136
-0.00523861
-0.00534007
-0.00545009
-0.00555633
-0.00566291
-0.00579289
-0.00592645
-0.00604675
-0.00617108
-0.0063005
-0.00641849
-0.00654145
-0.00667325
-0.00680191
-0.0069293
-0.0070579
-0.00718733
-0.00731141
-0.00744086
-0.00758223
-0.00771588
-0.00785335
-0.00799705
-0.00813888
-0.00827956
-0.0084207
-0.00857019
-0.00872311
-0.00888147
-0.00903886
-0.00918581
-0.00934761
-0.00950737
-0.00967203
-0.00984399
-0.010001
-0.0101834
-0.0103606
-0.0105174
-0.0107134
-0.0108893
-0.0110587
-0.0112515
-0.0114375
-0.0116022
-0.0117944
-0.0119864
-0.012152
-0.0123379
-0.0124857
-0.0126352
0.0162496
0.0121114
0.00474727
-0.00109624
-0.0032387
-0.00294691
-0.00217187
-0.001654
-0.0014847
-0.0016035
-0.00181723
-0.0019439
-0.00196511
-0.00198347
-0.00204314
-0.00211397
-0.00223496
-0.0023953
-0.00246762
-0.00245314
-0.00246225
-0.00251624
-0.00259359
-0.00267324
-0.00272159
-0.00275783
-0.0028364
-0.0029515
-0.00305685
-0.00313969
-0.00323022
-0.00334657
-0.00346438
-0.00355578
-0.00363756
-0.00373824
-0.0038483
-0.00394677
-0.00403345
-0.00412432
-0.00422275
-0.00431811
-0.00440955
-0.00451417
-0.00463857
-0.00476518
-0.00488479
-0.00500752
-0.00513094
-0.0052382
-0.00533967
-0.00544971
-0.00555597
-0.00566255
-0.00579256
-0.00592615
-0.00604646
-0.00617079
-0.00630024
-0.00641823
-0.00654119
-0.00667302
-0.00680168
-0.00692908
-0.00705769
-0.00718712
-0.00731121
-0.00744066
-0.00758204
-0.0077157
-0.00785317
-0.00799689
-0.00813873
-0.00827941
-0.00842055
-0.00857005
-0.00872297
-0.00888134
-0.00903874
-0.00918569
-0.00934749
-0.00950726
-0.00967192
-0.00984389
-0.0100009
-0.0101833
-0.0103605
-0.0105174
-0.0107133
-0.0108893
-0.0110586
-0.0112515
-0.0114374
-0.0116021
-0.0117944
-0.0119863
-0.0121519
-0.0123379
-0.0124857
-0.0126351
0.0155968
0.0119783
0.00500775
-0.000758337
-0.00303848
-0.00287394
-0.00213436
-0.00161797
-0.00145248
-0.00157743
-0.00179503
-0.00192453
-0.00194921
-0.00197139
-0.00203447
-0.00210737
-0.00222861
-0.00238852
-0.00246143
-0.00244857
-0.00245903
-0.00251331
-0.00259041
-0.00267013
-0.00271899
-0.0027557
-0.00283439
-0.00294945
-0.00305496
-0.00313813
-0.00322888
-0.00334528
-0.00346312
-0.00355463
-0.00363652
-0.00373724
-0.00384732
-0.00394582
-0.00403255
-0.00412347
-0.00422193
-0.00431732
-0.0044088
-0.00451346
-0.00463792
-0.00476458
-0.00488422
-0.00500699
-0.00513045
-0.00523774
-0.00533921
-0.00544928
-0.00555556
-0.00566214
-0.00579218
-0.00592581
-0.00604613
-0.00617047
-0.00629994
-0.00641794
-0.00654091
-0.00667276
-0.00680143
-0.00692884
-0.00705746
-0.0071869
-0.00731099
-0.00744044
-0.00758185
-0.00771551
-0.00785299
-0.00799671
-0.00813856
-0.00827924
-0.00842038
-0.00856989
-0.00872282
-0.00888119
-0.0090386
-0.00918556
-0.00934735
-0.00950714
-0.0096718
-0.00984378
-0.0100008
-0.0101832
-0.0103605
-0.0105172
-0.0107132
-0.0108892
-0.0110585
-0.0112514
-0.0114374
-0.011602
-0.0117943
-0.0119863
-0.0121519
-0.0123378
-0.0124857
-0.0126351
0.0149366
0.0117958
0.00525884
-0.000411848
-0.00282716
-0.0027971
-0.00209681
-0.00158002
-0.00141657
-0.00154741
-0.00176875
-0.00190095
-0.0019294
-0.00195598
-0.0020232
-0.00209886
-0.00222023
-0.00237905
-0.00245259
-0.00244229
-0.00245497
-0.00250977
-0.00258638
-0.00266603
-0.0027157
-0.00275326
-0.00283202
-0.00294674
-0.00305237
-0.0031361
-0.00322725
-0.00334364
-0.00346146
-0.00355318
-0.00363532
-0.00373611
-0.00384614
-0.00394469
-0.00403152
-0.00412249
-0.00422093
-0.00431634
-0.00440787
-0.00451261
-0.00463713
-0.00476385
-0.00488355
-0.00500636
-0.00512986
-0.00523718
-0.00533867
-0.00544876
-0.00555506
-0.00566165
-0.00579173
-0.00592541
-0.00604574
-0.00617011
-0.0062996
-0.0064176
-0.00654059
-0.00667246
-0.00680115
-0.00692857
-0.0070572
-0.00718665
-0.00731075
-0.0074402
-0.00758162
-0.0077153
-0.00785278
-0.00799652
-0.00813837
-0.00827906
-0.0084202
-0.00856971
-0.00872265
-0.00888104
-0.00903846
-0.00918541
-0.00934721
-0.009507
-0.00967167
-0.00984366
-0.0100007
-0.0101831
-0.0103603
-0.0105171
-0.0107131
-0.0108891
-0.0110584
-0.0112513
-0.0114373
-0.0116019
-0.0117942
-0.0119862
-0.0121518
-0.0123378
-0.0124857
-0.012635
0.0142768
0.0115714
0.00550141
-5.59634e-05
-0.00260341
-0.00271546
-0.00205981
-0.00154166
-0.00137832
-0.00151477
-0.0017401
-0.0018751
-0.00190743
-0.00193857
-0.00201019
-0.00208883
-0.00221006
-0.0023672
-0.00244137
-0.00243435
-0.00244995
-0.0025055
-0.00258147
-0.00266095
-0.00271177
-0.00275061
-0.00282942
-0.00294346
-0.00304904
-0.00313354
-0.00322523
-0.00334153
-0.00345923
-0.0035513
-0.00363388
-0.00373476
-0.0038447
-0.00394333
-0.00403035
-0.00412138
-0.00421975
-0.00431513
-0.00440674
-0.00451154
-0.00463611
-0.00476291
-0.00488271
-0.00500559
-0.00512915
-0.00523651
-0.00533802
-0.00544813
-0.00555445
-0.00566107
-0.00579119
-0.00592491
-0.00604527
-0.00616967
-0.00629919
-0.0064172
-0.00654021
-0.00667212
-0.00680083
-0.00692827
-0.0070569
-0.00718637
-0.00731047
-0.00743993
-0.00758137
-0.00771505
-0.00785254
-0.00799631
-0.00813816
-0.00827885
-0.00841999
-0.00856952
-0.00872247
-0.00888086
-0.0090383
-0.00918524
-0.00934704
-0.00950685
-0.00967151
-0.00984352
-0.0100005
-0.0101829
-0.0103602
-0.010517
-0.010713
-0.010889
-0.0110583
-0.0112512
-0.0114372
-0.0116018
-0.0117941
-0.0119861
-0.0121517
-0.0123377
-0.0124857
-0.012635
0.0136286
0.0113104
0.00573153
0.000307746
-0.00236629
-0.00262772
-0.00202329
-0.00150347
-0.00133814
-0.00147984
-0.00170969
-0.00184781
-0.00188414
-0.00191995
-0.00199605
-0.00207772
-0.0021986
-0.00235369
-0.00242845
-0.00242512
-0.00244407
-0.00250054
-0.00257578
-0.00265505
-0.00270731
-0.00274782
-0.00282672
-0.00293979
-0.00304518
-0.00313054
-0.00322285
-0.00333891
-0.00345637
-0.0035489
-0.00363209
-0.00373309
-0.0038429
-0.00394166
-0.00402902
-0.00412017
-0.00421843
-0.00431375
-0.00440544
-0.00451028
-0.00463484
-0.0047617
-0.00488163
-0.00500462
-0.00512827
-0.00523571
-0.00533726
-0.00544737
-0.0055537
-0.00566036
-0.00579051
-0.00592428
-0.0060447
-0.00616913
-0.00629867
-0.00641671
-0.00653976
-0.00667171
-0.00680046
-0.00692792
-0.00705656
-0.00718603
-0.00731015
-0.00743962
-0.00758107
-0.00771477
-0.00785228
-0.00799606
-0.00813792
-0.00827861
-0.00841976
-0.00856929
-0.00872226
-0.00888066
-0.00903811
-0.00918506
-0.00934686
-0.00950667
-0.00967134
-0.00984336
-0.0100004
-0.0101828
-0.0103601
-0.0105169
-0.0107129
-0.0108889
-0.0110581
-0.0112511
-0.0114371
-0.0116017
-0.011794
-0.011986
-0.0121516
-0.0123377
-0.0124858
-0.0126349
0.0130014
0.0110147
0.00594172
0.000676261
-0.00211493
-0.00253223
-0.0019868
-0.00146599
-0.00129643
-0.0014427
-0.00167757
-0.00181925
-0.00185977
-0.00190035
-0.001981
-0.00206578
-0.00218627
-0.00233911
-0.0024144
-0.00241494
-0.00243749
-0.00249497
-0.00256945
-0.00264852
-0.00270243
-0.00274488
-0.00282394
-0.0029359
-0.00304101
-0.00312729
-0.00322021
-0.00333584
-0.00345294
-0.00354599
-0.00362994
-0.00373106
-0.00384066
-0.0039396
-0.00402744
-0.00411884
-0.004217
-0.00431227
-0.00440406
-0.00450891
-0.00463335
-0.0047602
-0.00488027
-0.00500338
-0.00512715
-0.00523475
-0.00533639
-0.00544649
-0.00555283
-0.00565951
-0.00578968
-0.00592348
-0.00604399
-0.00616848
-0.00629803
-0.0064161
-0.0065392
-0.0066712
-0.0068
-0.0069275
-0.00705615
-0.00718563
-0.00730977
-0.00743925
-0.00758072
-0.00771444
-0.00785198
-0.00799578
-0.00813764
-0.00827834
-0.00841949
-0.00856904
-0.00872201
-0.00888043
-0.00903789
-0.00918484
-0.00934664
-0.00950646
-0.00967113
-0.00984318
-0.0100002
-0.0101826
-0.0103599
-0.0105167
-0.0107127
-0.0108887
-0.011058
-0.0112509
-0.0114369
-0.0116016
-0.0117938
-0.0119859
-0.0121515
-0.0123376
-0.0124858
-0.0126348
0.0124027
0.0106876
0.00612502
0.0010466
-0.00184832
-0.00242707
-0.00194971
-0.00142977
-0.00125373
-0.00140338
-0.00164366
-0.00178942
-0.00183434
-0.00187978
-0.00196511
-0.00205314
-0.00217331
-0.00232379
-0.0023995
-0.002404
-0.00243032
-0.00248892
-0.00256264
-0.00264153
-0.00269719
-0.00274175
-0.00282104
-0.00293186
-0.00303666
-0.0031239
-0.0032174
-0.00333247
-0.00344906
-0.00354267
-0.00362748
-0.00372871
-0.00383803
-0.00393713
-0.00402556
-0.00411731
-0.00421544
-0.00431073
-0.0044027
-0.00450755
-0.00463177
-0.00475851
-0.00487864
-0.00500181
-0.00512571
-0.00523357
-0.00533539
-0.00544552
-0.00555188
-0.00565858
-0.00578869