/*--------------------------------*- C++ -*----------------------------------*\
| =========                 |                                                 |
| \\      /  F ield         | OpenFOAM: The Open Source CFD Toolbox           |
|  \\    /   O peration     | Version:  3.0.1                                 |
|   \\  /    A nd           | Web:      www.OpenFOAM.org                      |
|    \\/     M anipulation  |                                                 |
\*---------------------------------------------------------------------------*/
FoamFile
{
    version     2.0;
    format      ascii;
    class       surfaceScalarField;
    location    "1.6";
    object      phi;
}
// * * * * * * * * * * * * * * * * * * * * * * * * * * * * * * * * * * * * * //

dimensions      [0 3 -1 0 0 0 0];

internalField   nonuniform List<scalar> 
19000
(
1.18693e-06
6.09797e-09
1.14895e-06
4.8546e-07
1.1424e-06
-5.96802e-07
1.19743e-06
-2.73494e-07
1.21556e-06
-5.20385e-08
1.15352e-06
4.14646e-07
1.15425e-06
3.91433e-07
1.14943e-06
4.83375e-08
1.15611e-06
-4.72368e-07
1.17608e-06
-1.35744e-07
1.18185e-06
-2.99973e-07
1.17352e-06
9.40256e-09
1.17588e-06
-1.54474e-07
1.16632e-06
5.11736e-08
1.16842e-06
2.58023e-07
1.15067e-06
1.04106e-07
1.15724e-06
3.06469e-07
1.1322e-06
6.29799e-08
1.13566e-06
1.5594e-07
6.58106e-08
1.09869e-06
1.2418e-06
-1.14418e-08
1.20963e-06
5.17627e-07
1.2026e-06
-5.89764e-07
1.25527e-06
-3.26168e-07
1.27282e-06
-6.95894e-08
1.21628e-06
4.71185e-07
1.20976e-06
3.97958e-07
1.21058e-06
4.75185e-08
1.21555e-06
-4.77339e-07
1.23666e-06
-1.56853e-07
1.24071e-06
-3.04024e-07
1.23696e-06
1.31512e-08
1.23381e-06
-1.51326e-07
1.23041e-06
5.45691e-08
1.22079e-06
2.67646e-07
1.21646e-06
1.08441e-07
1.20353e-06
3.19401e-07
1.20293e-06
6.35783e-08
1.17756e-06
1.81306e-07
5.97229e-08
1.18365e-06
1.29698e-06
-2.56426e-08
1.27551e-06
5.391e-07
1.26541e-06
-5.79665e-07
1.31448e-06
-3.75239e-07
1.33014e-06
-8.52487e-08
1.28681e-06
5.14522e-07
1.27025e-06
4.14516e-07
1.27632e-06
4.1443e-08
1.27603e-06
-4.77043e-07
1.29855e-06
-1.79377e-07
1.29885e-06
-3.04319e-07
1.30203e-06
9.96954e-09
1.29106e-06
-1.40355e-07
1.29323e-06
5.23985e-08
1.27977e-06
2.81101e-07
1.27791e-06
1.10303e-07
1.26686e-06
3.30452e-07
1.26449e-06
6.59487e-08
1.25062e-06
1.95178e-07
6.93655e-08
1.24097e-06
1.35338e-06
-3.4921e-08
1.34389e-06
5.48594e-07
1.3302e-06
-5.65982e-07
1.3732e-06
-4.18239e-07
1.38655e-06
-9.85901e-08
1.35785e-06
5.43216e-07
1.33535e-06
4.37014e-07
1.34251e-06
3.42877e-08
1.33786e-06
-4.72392e-07
1.35812e-06
-1.99638e-07
1.35748e-06
-3.03679e-07
1.36294e-06
4.51216e-09
1.34969e-06
-1.27108e-07
1.35076e-06
5.13275e-08
1.34199e-06
2.89871e-07
1.33723e-06
1.15061e-07
1.33221e-06
3.35476e-07
1.32617e-06
7.19855e-08
1.31949e-06
2.01859e-07
8.44183e-08
1.30444e-06
1.41227e-06
-3.88379e-08
1.41306e-06
5.47808e-07
1.39714e-06
-5.50063e-07
1.43121e-06
-4.52313e-07
1.44249e-06
-1.09863e-07
1.42596e-06
5.59741e-07
1.404e-06
4.58979e-07
1.40884e-06
2.94414e-08
1.4023e-06
-4.65848e-07
1.41767e-06
-2.15008e-07
1.41791e-06
-3.03916e-07
1.42318e-06
-7.58969e-10
1.41065e-06
-1.14583e-07
1.40917e-06
5.28044e-08
1.40436e-06
2.94687e-07
1.3987e-06
1.20717e-07
1.39682e-06
3.37357e-07
1.38974e-06
7.90644e-08
1.38639e-06
2.05214e-07
1.00472e-07
1.37033e-06
1.47519e-06
-3.83509e-08
1.48276e-06
5.4024e-07
1.467e-06
-5.34304e-07
1.49017e-06
-4.75486e-07
1.49952e-06
-1.19209e-07
1.49178e-06
5.67483e-07
1.47538e-06
4.75373e-07
1.47746e-06
2.73637e-08
1.47024e-06
-4.58627e-07
1.48058e-06
-2.25353e-07
1.48103e-06
-3.04359e-07
1.48603e-06
-5.76399e-09
1.47446e-06
-1.03016e-07
1.47153e-06
5.57389e-08
1.46849e-06
2.97726e-07
1.46339e-06
1.2582e-07
1.46379e-06
3.3696e-07
1.45634e-06
8.65059e-08
1.45579e-06
2.05768e-07
1.16587e-07
1.43968e-06
1.54319e-06
-3.53282e-08
1.55409e-06
5.29345e-07
1.54041e-06
-5.20629e-07
1.5525e-06
-4.87569e-07
1.55945e-06
-1.26159e-07
1.55801e-06
5.68919e-07
1.5491e-06
4.84285e-07
1.54993e-06
2.65318e-08
1.54191e-06
-4.50603e-07
1.54827e-06
-2.31721e-07
1.54758e-06
-3.03663e-07
1.55248e-06
-1.06653e-08
1.54153e-06
-9.20676e-08
1.53824e-06
5.90298e-08
1.53616e-06
2.998e-07
1.53189e-06
1.30096e-07
1.5345e-06
3.34348e-07
1.52673e-06
9.42791e-08
1.52872e-06
2.03772e-07
1.32324e-07
1.51298e-06
1.61642e-06
-3.16164e-08
1.62837e-06
5.17394e-07
1.61737e-06
-5.09634e-07
1.62001e-06
-4.90205e-07
1.62382e-06
-1.29971e-07
1.6272e-06
5.65543e-07
1.62526e-06
4.86228e-07
1.62641e-06
2.53806e-08
1.61723e-06
-4.4143e-07
1.62065e-06
-2.35141e-07
1.61804e-06
-3.01054e-07
1.62267e-06
-1.52951e-08
1.61213e-06
-8.15239e-08
1.60922e-06
6.19401e-08
1.60815e-06
3.00874e-07
1.60463e-06
1.33611e-07
1.60937e-06
3.29607e-07
1.60112e-06
1.02528e-07
1.60526e-06
1.99637e-07
1.47383e-07
1.5902e-06
1.69432e-06
-2.83573e-08
1.70633e-06
5.05379e-07
1.69746e-06
-5.00767e-07
1.69334e-06
-4.86087e-07
1.69373e-06
-1.30354e-07
1.70084e-06
5.58428e-07
1.70428e-06
4.82788e-07
1.70642e-06
2.32397e-08
1.69608e-06
-4.31082e-07
1.69732e-06
-2.36381e-07
1.69264e-06
-2.96374e-07
1.69677e-06
-1.94254e-08
1.68653e-06
-7.12893e-08
1.68445e-06
6.40243e-08
1.68467e-06
3.00651e-07
1.68175e-06
1.3653e-07
1.68849e-06
3.22869e-07
1.67958e-06
1.11438e-07
1.68529e-06
1.93924e-07
1.61479e-07
1.6712e-06
1.77628e-06
-2.59105e-08
1.78815e-06
4.93507e-07
1.78038e-06
-4.92998e-07
1.77221e-06
-4.77924e-07
1.76964e-06
-1.27782e-07
1.77955e-06
5.4852e-07
1.78662e-06
4.75717e-07
1.78967e-06
2.019e-08
1.77833e-06
-4.1974e-07
1.77799e-06
-2.36045e-07
1.77146e-06
-2.8984e-07
1.77498e-06
-2.29458e-08
1.76503e-06
-6.1342e-08
1.76392e-06
6.51353e-08
1.7657e-06
2.98872e-07
1.76313e-06
1.39102e-07
1.77167e-06
3.1433e-07
1.76202e-06
1.21083e-07
1.76864e-06
1.87305e-07
1.74254e-07
1.75587e-06
1.86201e-06
-2.41749e-08
1.87382e-06
4.81696e-07
1.8662e-06
-4.85375e-07
1.85604e-06
-4.67759e-07
1.85149e-06
-1.23234e-07
1.86342e-06
5.36587e-07
1.87264e-06
4.66502e-07
1.87622e-06
1.66031e-08
1.86405e-06
-4.0757e-07
1.86261e-06
-2.34599e-07
1.85463e-06
-2.81864e-07
1.85757e-06
-2.58807e-08
1.84794e-06
-5.17173e-08
1.84767e-06
6.54037e-08
1.8511e-06
2.95441e-07
1.84859e-06
1.41621e-07
1.85864e-06
3.04271e-07
1.84838e-06
1.31347e-07
1.8552e-06
1.80486e-07
1.85282e-07
1.84417e-06
1.95159e-06
-2.29255e-08
1.96347e-06
4.69814e-07
1.95534e-06
-4.77239e-07
1.94439e-06
-4.56814e-07
1.93888e-06
-1.1772e-07
1.95232e-06
5.2314e-07
1.96261e-06
4.56213e-07
1.96638e-06
1.28323e-08
1.95347e-06
-3.94662e-07
1.95123e-06
-2.32351e-07
1.94228e-06
-2.72922e-07
1.94474e-06
-2.83332e-08
1.93552e-06
-4.25053e-08
1.9358e-06
6.51318e-08
1.94081e-06
2.90428e-07
1.93809e-06
1.44343e-07
1.9493e-06
2.93061e-07
1.93871e-06
1.41934e-07
1.94505e-06
1.74151e-07
1.9416e-07
1.93617e-06
2.04525e-06
-2.19817e-08
2.0573e-06
4.57754e-07
2.0483e-06
-4.68235e-07
2.03715e-06
-4.45667e-07
2.03141e-06
-1.11974e-07
2.04608e-06
5.08468e-07
2.05678e-06
4.45509e-07
2.06051e-06
9.10999e-09
2.04693e-06
-3.81081e-07
2.04403e-06
-2.29452e-07
2.03455e-06
-2.63449e-07
2.03663e-06
-3.0406e-08
2.02796e-06
-3.38346e-08
2.02843e-06
6.46577e-08
2.03486e-06
2.83997e-07
2.03179e-06
1.47411e-07
2.04371e-06
2.8115e-07
2.03321e-06
1.52433e-07
2.03848e-06
1.68875e-07
2.00613e-07
2.03203e-06
2.14325e-06
-2.12334e-08
2.15557e-06
4.45436e-07
2.14558e-06
-4.58244e-07
2.13444e-06
-4.34524e-07
2.12884e-06
-1.06379e-07
2.14458e-06
4.92734e-07
2.15537e-06
4.34719e-07
2.15892e-06
5.55248e-09
2.14477e-06
-3.66924e-07
2.14126e-06
-2.25941e-07
2.13159e-06
-2.53786e-07
2.13333e-06
-3.21451e-08
2.12533e-06
-2.58339e-08
2.12573e-06
6.42592e-08
2.13336e-06
2.76363e-07
2.12995e-06
1.50826e-07
2.14207e-06
2.69023e-07
2.1321e-06
1.62411e-07
2.13594e-06
1.65032e-07
2.04587e-07
2.13197e-06
2.24587e-06
-2.0615e-08
2.2585e-06
4.32805e-07
2.24756e-06
-4.47305e-07
2.23646e-06
-4.23417e-07
2.23112e-06
-1.01041e-07
2.24778e-06
4.76073e-07
2.25854e-06
4.23955e-07
2.2619e-06
2.19824e-09
2.24732e-06
-3.52347e-07
2.24317e-06
-2.21792e-07
2.23356e-06
-2.44173e-07
2.23494e-06
-3.35269e-08
2.22769e-06
-1.85867e-08
2.22784e-06
6.4112e-08
2.23642e-06
2.67781e-07
2.23279e-06
1.54461e-07
2.24465e-06
2.57164e-07
2.23559e-06
1.71471e-07
2.23791e-06
1.62704e-07
2.06301e-07
2.2362e-06
2.35334e-06
-2.00822e-08
2.36631e-06
4.19834e-07
2.35455e-06
-4.35546e-07
2.34346e-06
-4.12322e-07
2.33833e-06
-9.59112e-08
2.35576e-06
4.58647e-07
2.36651e-06
4.13206e-07
2.36965e-06
-9.51193e-10
2.35486e-06
-3.37554e-07
2.35002e-06
-2.16948e-07
2.34062e-06
-2.34777e-07
2.34158e-06
-3.44852e-08
2.3351e-06
-1.21062e-08
2.33492e-06
6.42876e-08
2.34416e-06
2.58546e-07
2.34051e-06
1.58105e-07
2.35169e-06
2.4599e-07
2.34386e-06
1.79302e-07
2.34478e-06
1.61786e-07
2.06125e-07
2.34495e-06
2.46592e-06
-1.96028e-08
2.47923e-06
4.06523e-07
2.46681e-06
-4.23124e-07
2.45569e-06
-4.01205e-07
2.45068e-06
-9.09031e-08
2.46868e-06
4.40644e-07
2.47948e-06
4.02409e-07
2.48243e-06
-3.89591e-09
2.46764e-06
-3.2277e-07
2.46205e-06
-2.11353e-07
2.45297e-06
-2.25701e-07
2.45345e-06
-3.49602e-08
2.44766e-06
-6.32328e-09
2.44719e-06
6.47594e-08
2.45675e-06
2.4899e-07
2.45333e-06
1.61524e-07
2.46355e-06
2.35765e-07
2.45708e-06
1.8577e-07
2.45683e-06
1.62038e-07
2.0449e-07
2.45847e-06
2.58385e-06
-1.91568e-08
2.59748e-06
3.92892e-07
2.58454e-06
-4.10188e-07
2.57337e-06
-3.90034e-07
2.56842e-06
-8.59559e-08
2.58681e-06
4.22263e-07
2.59773e-06
3.91484e-07
2.60045e-06
-6.61335e-09
2.58588e-06
-3.08206e-07
2.57949e-06
-2.04962e-07
2.57079e-06
-2.17002e-07
2.57077e-06
-3.49407e-08
2.56554e-06
-1.09054e-09
2.56489e-06
6.54157e-08
2.57443e-06
2.39447e-07
2.57142e-06
1.6453e-07
2.58062e-06
2.26568e-07
2.57546e-06
1.90933e-07
2.57437e-06
1.63127e-07
2.01835e-07
2.57702e-06
2.70741e-06
-1.87362e-08
2.72132e-06
3.7898e-07
2.708e-06
-3.96868e-07
2.69673e-06
-3.78768e-07
2.69184e-06
-8.10658e-08
2.71041e-06
4.03695e-07
2.72155e-06
3.80344e-07
2.72399e-06
-9.04926e-09
2.70982e-06
-2.94042e-07
2.70262e-06
-1.97757e-07
2.6943e-06
-2.08678e-07
2.69384e-06
-3.44851e-08
2.68896e-06
3.78667e-09
2.68827e-06
6.61042e-08
2.69752e-06
2.30206e-07
2.69503e-06
1.67016e-07
2.70326e-06
2.18336e-07
2.69924e-06
1.94954e-07
2.69765e-06
1.64718e-07
1.9853e-07
2.70095e-06
2.83688e-06
-1.83433e-08
2.85102e-06
3.64836e-07
2.83743e-06
-3.83277e-07
2.82602e-06
-3.67355e-07
2.82123e-06
-7.62826e-08
2.83981e-06
3.85114e-07
2.85125e-06
3.68904e-07
2.85333e-06
-1.11259e-08
2.8397e-06
-2.80411e-07
2.8317e-06
-1.8976e-07
2.82369e-06
-2.00668e-07
2.82293e-06
-3.37257e-08
2.81819e-06
8.52554e-09
2.81762e-06
6.66764e-08
2.82638e-06
2.2145e-07
2.82439e-06
1.69004e-07
2.83182e-06
2.10907e-07
2.82877e-06
1.98e-07
2.82692e-06
1.66566e-07
1.94835e-07
2.83062e-06
2.97254e-06
-1.79864e-08
2.98686e-06
3.50519e-07
2.9731e-06
-3.69523e-07
2.96147e-06
-3.55725e-07
2.95688e-06
-7.16942e-08
2.97533e-06
3.6667e-07
2.98715e-06
3.57086e-07
2.98878e-06
-1.27618e-08
2.97576e-06
-2.6739e-07
2.96704e-06
-1.81043e-07
2.95922e-06
-1.92845e-07
2.95834e-06
-3.2849e-08
2.95354e-06
1.3333e-08
2.95318e-06
6.7033e-08
2.96141e-06
2.13222e-07
2.95977e-06
1.70643e-07
2.96658e-06
2.04096e-07
2.96443e-06
2.00153e-07
2.96244e-06
1.68551e-07
1.9091e-07
2.96637e-06
3.1147e-06
-1.7676e-08
3.12912e-06
3.36096e-07
3.11531e-06
-3.55718e-07
3.10339e-06
-3.43797e-07
3.0991e-06
-6.74038e-08
3.11727e-06
3.48493e-07
3.12953e-06
3.44827e-07
3.13067e-06
-1.38971e-08
3.11827e-06
-2.54993e-07
3.10896e-06
-1.71735e-07
3.10115e-06
-1.85036e-07
3.10036e-06
-3.20547e-08
3.09533e-06
1.83593e-08
3.09519e-06
6.71708e-08
3.10298e-06
2.05439e-07
3.10147e-06
1.72145e-07
3.10779e-06
1.97783e-07
3.10658e-06
2.01364e-07
3.10447e-06
1.70652e-07
1.86858e-07
3.10853e-06
3.26366e-06
-1.74232e-08
3.27811e-06
3.21645e-07
3.26438e-06
-3.41991e-07
3.25206e-06
-3.31481e-07
3.24817e-06
-6.35118e-08
3.26598e-06
3.30688e-07
3.27871e-06
3.32096e-07
3.27933e-06
-1.45181e-08
3.2675e-06
-2.43167e-07
3.25778e-06
-1.62017e-07
3.24979e-06
-1.77044e-07
3.24924e-06
-3.15015e-08
3.24394e-06
2.3662e-08
3.24391e-06
6.71969e-08
3.2514e-06
1.97949e-07
3.24988e-06
1.73665e-07
3.25569e-06
1.9197e-07
3.25555e-06
2.01512e-07
3.25333e-06
1.72868e-07
1.82791e-07
3.2574e-06
3.41975e-06
-1.72402e-08
3.43414e-06
3.07257e-07
3.42063e-06
-3.28482e-07
3.40784e-06
-3.18691e-07
3.40443e-06
-6.00985e-08
3.42178e-06
3.13333e-07
3.43497e-06
3.18904e-07
3.43513e-06
-1.46709e-08
3.42376e-06
-2.31805e-07
3.41385e-06
-1.521e-07
3.4055e-06
-1.68694e-07
3.40527e-06
-3.12694e-08
3.39973e-06
2.91953e-08
3.39962e-06
6.73088e-08
3.40699e-06
1.90583e-07
3.40539e-06
1.75259e-07
3.41061e-06
1.8675e-07
3.41163e-06
2.00497e-07
3.40937e-06
1.75124e-07
1.78887e-07
3.41328e-06
3.58331e-06
-1.71417e-08
3.59753e-06
2.93038e-07
3.5844e-06
-3.15347e-07
3.57106e-06
-3.05358e-07
3.56817e-06
-5.72079e-08
3.58504e-06
2.96463e-07
3.59863e-06
3.05319e-07
3.59843e-06
-1.4468e-08
3.58738e-06
-2.20762e-07
3.57749e-06
-1.42203e-07
3.56864e-06
-1.59849e-07
3.56872e-06
-3.1348e-08
3.56308e-06
3.48312e-08
3.56264e-06
6.77499e-08
3.57001e-06
1.8322e-07
3.56842e-06
1.76847e-07
3.5729e-06
1.8227e-07
3.5751e-06
1.98296e-07
3.57299e-06
1.77231e-07
1.75396e-07
3.57648e-06
3.75471e-06
-1.71468e-08
3.76865e-06
2.79103e-07
3.75604e-06
-3.02737e-07
3.74212e-06
-2.91445e-07
3.73975e-06
-5.48315e-08
3.75615e-06
2.80057e-07
3.77e-06
2.91472e-07
3.7696e-06
-1.40706e-08
3.75873e-06
-2.0989e-07
3.74903e-06
-1.32504e-07
3.73965e-06
-1.50467e-07
3.73991e-06
-3.16096e-08
3.73435e-06
4.03867e-08
3.73336e-06
6.87458e-08
3.74076e-06
1.75821e-07
3.73932e-06
1.78281e-07
3.74297e-06
1.78623e-07
3.74624e-06
1.95027e-07
3.74458e-06
1.78893e-07
1.72571e-07
3.7474e-06
3.93432e-06
-1.72786e-08
3.94785e-06
2.65572e-07
3.9359e-06
-2.90789e-07
3.92142e-06
-2.7696e-07
3.91948e-06
-5.2898e-08
3.93551e-06
2.64028e-07
3.94942e-06
2.7756e-07
3.94903e-06
-1.36741e-08
3.9382e-06
-1.99064e-07
3.9288e-06
-1.23103e-07
3.91894e-06
-1.4061e-07
3.91919e-06
-3.18587e-08
3.91388e-06
4.57018e-08
3.9122e-06
7.04257e-08
3.91954e-06
1.68478e-07
3.91846e-06
1.79363e-07
3.92126e-06
1.75824e-07
3.92536e-06
1.90929e-07
3.92448e-06
1.79769e-07
1.70547e-07
3.9265e-06
4.12253e-06
-1.75617e-08
4.13555e-06
2.52557e-07
4.12437e-06
-2.79609e-07
4.10938e-06
-2.61972e-07
4.10775e-06
-5.12702e-08
4.12356e-06
2.48222e-07
4.13728e-06
2.63836e-07
4.13708e-06
-1.34727e-08
4.12624e-06
-1.88218e-07
4.11713e-06
-1.13994e-07
4.10695e-06
-1.30434e-07
4.10698e-06
-3.18847e-08
4.102e-06
5.0684e-08
4.09961e-06
7.28107e-08
4.10675e-06
1.61339e-07
4.1062e-06
1.7991e-07
4.10821e-06
1.73817e-07
4.11283e-06
1.86309e-07
4.113e-06
1.79599e-07
1.69221e-07
4.11433e-06
4.31976e-06
-1.80185e-08
4.33216e-06
2.40151e-07
4.32181e-06
-2.69252e-07
4.30646e-06
-2.46621e-07
4.30493e-06
-4.97464e-08
4.32073e-06
2.32424e-07
4.33399e-06
2.50575e-07
4.33414e-06
-1.36179e-08
4.32331e-06
-1.77388e-07
4.31438e-06
-1.05063e-07
4.30405e-06
-1.20113e-07
4.30372e-06
-3.15469e-08
4.29907e-06
5.53326e-08
4.29601e-06
7.58692e-08
4.3028e-06
1.54545e-07
4.30295e-06
1.79766e-07
4.30428e-06
1.72486e-07
4.3091e-06
1.81493e-07
4.31042e-06
1.7827e-07
1.68256e-07
4.31139e-06
4.52642e-06
-1.86649e-08
4.53815e-06
2.28419e-07
4.52861e-06
-2.59713e-07
4.51312e-06
-2.3113e-07
4.51143e-06
-4.80588e-08
4.52748e-06
2.16381e-07
4.54001e-06
2.38039e-07
4.54058e-06
-1.41851e-08
4.52991e-06
-1.66716e-07
4.52096e-06
-9.61152e-08
4.51062e-06
-1.09772e-07
4.50988e-06
-3.08089e-08
4.50549e-06
5.97264e-08
4.50178e-06
7.95737e-08
4.50816e-06
1.48168e-07
4.50912e-06
1.78807e-07
4.50994e-06
1.71671e-07
4.51466e-06
1.76764e-07
4.51708e-06
1.75858e-07
1.67208e-07
4.51813e-06
4.74296e-06
-1.95064e-08
4.75399e-06
2.17389e-07
4.74519e-06
-2.50915e-07
4.72987e-06
-2.15809e-07
4.7277e-06
-4.58885e-08
4.74424e-06
1.99843e-07
4.75584e-06
2.26432e-07
4.75676e-06
-1.5099e-08
4.74652e-06
-1.56482e-07
4.73736e-06
-8.69547e-08
4.72702e-06
-9.94281e-08
4.72591e-06
-2.97025e-08
4.72169e-06
6.39477e-08
4.71732e-06
8.39436e-08
4.72329e-06
1.42197e-07
4.72517e-06
1.76927e-07
4.72565e-06
1.7119e-07
4.73009e-06
1.72329e-07
4.73335e-06
1.72593e-07
1.65677e-07
4.73488e-06
4.96983e-06
-2.05346e-08
4.98018e-06
2.07039e-07
4.97196e-06
-2.42704e-07
4.95721e-06
-2.01059e-07
4.95421e-06
-4.28823e-08
4.97144e-06
1.82615e-07
4.98202e-06
2.15843e-07
4.98303e-06
-1.6101e-08
4.97358e-06
-1.4704e-07
4.96411e-06
-7.74823e-08
4.95362e-06
-8.89405e-08
4.95221e-06
-2.82884e-08
4.94813e-06
6.80271e-08
4.94312e-06
8.89579e-08
4.94869e-06
1.36628e-07
4.95158e-06
1.74031e-07
4.9519e-06
1.70875e-07
4.95591e-06
1.68316e-07
4.95975e-06
1.68755e-07
1.63456e-07
4.96197e-06
5.20751e-06
-2.17265e-08
5.21724e-06
1.97304e-07
5.20939e-06
-2.34852e-07
5.19569e-06
-1.87357e-07
5.19151e-06
-3.86986e-08
5.20946e-06
1.64664e-07
5.21919e-06
2.06106e-07
5.21982e-06
-1.67231e-08
5.21148e-06
-1.38702e-07
5.20176e-06
-6.77668e-08
5.19085e-06
-7.8022e-08
5.18913e-06
-2.65777e-08
5.18532e-06
7.18431e-08
5.17978e-06
9.44922e-08
5.18487e-06
1.31547e-07
5.18885e-06
1.7005e-07
5.18917e-06
1.70554e-07
5.19267e-06
1.64817e-07
5.19684e-06
1.64583e-07
1.60551e-07
5.19974e-06
5.45651e-06
-2.3043e-08
5.46574e-06
1.88067e-07
5.45797e-06
-2.27075e-07
5.44581e-06
-1.75205e-07
5.44023e-06
-3.31109e-08
5.4587e-06
1.46193e-07
5.46803e-06
1.96775e-07
5.46765e-06
-1.63497e-08
5.46054e-06
-1.3159e-07
5.45084e-06
-5.80662e-08
5.43916e-06
-6.63378e-08
5.43706e-06
-2.44819e-08
5.43381e-06
7.50964e-08
5.428e-06
1.00298e-07
5.43238e-06
1.27168e-07
5.43743e-06
1.64998e-07
5.43799e-06
1.69998e-07
5.44089e-06
1.61919e-07
5.44522e-06
1.6025e-07
1.5711e-07
5.44866e-06
5.71735e-06
-2.44301e-08
5.72624e-06
1.79171e-07
5.71822e-06
-2.19055e-07
5.70809e-06
-1.65069e-07
5.70106e-06
-2.60811e-08
5.71957e-06
1.27675e-07
5.72905e-06
1.87302e-07
5.72715e-06
-1.44561e-08
5.72111e-06
-1.25545e-07
5.71174e-06
-4.87016e-08
5.69909e-06
-5.36835e-08
5.69648e-06
-2.18702e-08
5.69419e-06
7.73813e-08
5.68841e-06
1.06082e-07
5.69183e-06
1.23743e-07
5.69782e-06
1.59016e-07
5.6989e-06
1.68914e-07
5.70114e-06
1.59675e-07
5.70548e-06
1.55915e-07
1.53282e-07
5.70931e-06
5.99058e-06
-2.58188e-08
5.99933e-06
1.70421e-07
5.99074e-06
-2.10464e-07
5.98299e-06
-1.57321e-07
5.97471e-06
-1.77952e-08
5.99256e-06
1.09821e-07
6.0027e-06
1.7716e-07
5.999e-06
-1.0756e-08
5.99348e-06
-1.20026e-07
5.98476e-06
-3.99807e-08
5.97124e-06
-4.01585e-08
5.96794e-06
-1.85745e-08
5.96704e-06
7.82834e-08
5.9616e-06
1.11521e-07
5.96388e-06
1.21464e-07
5.97049e-06
1.52407e-07
5.97242e-06
1.66984e-07
5.97407e-06
1.58027e-07
5.97819e-06
1.51791e-07
1.49153e-07
5.98232e-06
6.2768e-06
-2.71295e-08
6.28562e-06
1.61605e-07
6.27616e-06
-2.01005e-07
6.27084e-06
-1.52007e-07
6.26186e-06
-8.8116e-09
6.27831e-06
9.33735e-08
6.28945e-06
1.66017e-07
6.28386e-06
-5.16271e-09
6.27813e-06
-1.14304e-07
6.27029e-06
-3.21367e-08
6.25634e-06
-2.62097e-08
6.25224e-06
-1.44737e-08
6.25285e-06
7.76714e-08
6.24814e-06
1.1623e-07
6.24921e-06
1.204e-07
6.25603e-06
1.45587e-07
6.25905e-06
1.63967e-07
6.26031e-06
1.56758e-07
6.26398e-06
1.48124e-07
1.44805e-07
6.26833e-06
6.57661e-06
-2.82737e-08
6.58571e-06
1.52504e-07
6.57514e-06
-1.90434e-07
6.57203e-06
-1.48892e-07
6.56317e-06
4.51806e-11
6.57757e-06
7.89728e-08
6.58975e-06
1.53839e-07
6.58253e-06
2.05478e-09
6.57582e-06
-1.0759e-07
6.56921e-06
-2.55274e-08
6.55546e-06
-1.24616e-08
6.55034e-06
-9.35148e-09
6.55219e-06
7.58224e-08
6.54857e-06
1.19843e-07
6.54853e-06
1.20445e-07
6.55509e-06
1.39026e-07
6.55928e-06
1.59778e-07
6.56051e-06
1.55522e-07
6.56356e-06
1.4508e-07
1.4041e-07
6.56795e-06
6.89068e-06
-2.91595e-08
6.90026e-06
1.42916e-07
6.88842e-06
-1.78591e-07
6.88713e-06
-1.47602e-07
6.87929e-06
7.88332e-09
6.89119e-06
6.70787e-08
6.9042e-06
1.4083e-07
6.89588e-06
1.03678e-08
6.88761e-06
-9.93113e-08
6.88242e-06
-2.03452e-08
6.86941e-06
5.558e-10
6.86314e-06
-3.08222e-09
6.86569e-06
7.32663e-08
6.86343e-06
1.22105e-07
6.86252e-06
1.21361e-07
6.86842e-06
1.33119e-07
6.87367e-06
1.5453e-07
6.87525e-06
1.53942e-07
6.87769e-06
1.42643e-07
1.36227e-07
6.88187e-06
7.21967e-06
-2.96952e-08
7.22992e-06
1.32667e-07
7.21674e-06
-1.65413e-07
7.21681e-06
-1.47669e-07
7.21085e-06
1.38456e-08
7.21996e-06
5.79652e-08
7.23344e-06
1.27348e-07
7.22472e-06
1.90948e-08
7.21451e-06
-8.91072e-08
7.21047e-06
-1.63088e-08
7.19866e-06
1.23685e-08
7.19137e-06
4.20637e-09
7.19412e-06
7.05238e-08
7.19329e-06
1.22931e-07
7.19184e-06
1.22807e-07
7.19682e-06
1.28142e-07
7.20285e-06
1.48506e-07
7.20509e-06
1.51699e-07
7.2071e-06
1.40634e-07
1.32484e-07
7.21084e-06
7.56433e-06
-2.97962e-08
7.57536e-06
1.21632e-07
7.5609e-06
-1.50955e-07
7.56177e-06
-1.48533e-07
7.55822e-06
1.73908e-08
7.5647e-06
5.14829e-08
7.5782e-06
1.1385e-07
7.56963e-06
2.76655e-08
7.55755e-06
-7.7028e-08
7.55405e-06
-1.28024e-08
7.54377e-06
2.26486e-08
7.53575e-06
1.22201e-08
7.53825e-06
6.80251e-08
7.53881e-06
1.22368e-07
7.53721e-06
1.24415e-07
7.54109e-06
1.24258e-07
7.54755e-06
1.42049e-07
7.55063e-06
1.48611e-07
7.55247e-06
1.38796e-07
1.29251e-07
7.55571e-06
7.92541e-06
-2.93904e-08
7.93729e-06
1.09743e-07
7.92178e-06
-1.3544e-07
7.92276e-06
-1.49509e-07
7.92189e-06
1.82556e-08
7.92609e-06
4.72809e-08
7.93915e-06
1.00791e-07
7.93131e-06
3.55051e-08
7.91753e-06
-6.3248e-08
7.91393e-06
-9.19682e-09
7.90535e-06
3.1222e-08
7.89697e-06
2.0601e-08
7.89893e-06
6.60664e-08
7.90073e-06
1.20572e-07
7.8993e-06
1.2584e-07
7.90207e-06
1.21493e-07
7.90858e-06
1.35538e-07
7.91256e-06
1.44627e-07
7.91449e-06
1.36872e-07
1.26447e-07
7.91729e-06
8.30372e-06
-2.84313e-08
8.31644e-06
9.70222e-08
8.30024e-06
-1.19233e-07
8.30052e-06
-1.49794e-07
8.30237e-06
1.64068e-08
8.30481e-06
4.48394e-08
8.31684e-06
8.87622e-08
8.31022e-06
4.21249e-08
8.29527e-06
-4.82964e-08
8.29104e-06
-4.97194e-09
8.28412e-06
3.81482e-08
8.27574e-06
2.89817e-08
8.27701e-06
6.47975e-08
8.27978e-06
1.17794e-07
8.27886e-06
1.26762e-07
8.28061e-06
1.1975e-07
8.2868e-06
1.29346e-07
8.29162e-06
1.39804e-07
8.29384e-06
1.34652e-07
1.23914e-07
8.29637e-06
8.70013e-06
-2.69042e-08
8.71357e-06
8.35834e-08
8.6971e-06
-1.02761e-07
8.69584e-06
-1.48533e-07
8.70014e-06
1.2109e-08
8.70138e-06
4.3599e-08
8.71168e-06
7.84633e-08
8.70664e-06
4.71651e-08
8.69152e-06
-3.31785e-08
8.68647e-06
7.81206e-11
8.68085e-06
4.37692e-08
8.6728e-06
3.70288e-08
8.67332e-06
6.42784e-08
8.67681e-06
1.14307e-07
8.67664e-06
1.26934e-07
8.67758e-06
1.18804e-07
8.68312e-06
1.2381e-07
8.68862e-06
1.34303e-07
8.6913e-06
1.31968e-07
1.21497e-07
8.69372e-06
9.11555e-06
-2.48308e-08
9.12951e-06
6.9618e-08
9.11324e-06
-8.64937e-08
9.10959e-06
-1.44883e-07
9.11569e-06
6.01601e-09
9.11594e-06
4.33488e-08
9.12371e-06
7.06939e-08
9.12097e-06
4.9901e-08
9.10698e-06
-1.91924e-08
9.10118e-06
5.88211e-09
9.09647e-06
4.84765e-08
9.08895e-06
4.45487e-08
9.08876e-06
6.44711e-08
9.09269e-06
1.10378e-07
9.09339e-06
1.2623e-07
9.09387e-06
1.18323e-07
9.09851e-06
1.19173e-07
9.10442e-06
1.28396e-07
9.10769e-06
1.28691e-07
1.19066e-07
9.11013e-06
9.55091e-06
-2.22799e-08
9.56511e-06
5.54173e-08
9.54962e-06
-7.10017e-08
9.5429e-06
-1.38163e-07
9.55007e-06
-1.16006e-09
9.54943e-06
4.39923e-08
9.55459e-06
6.55296e-08
9.55418e-06
5.03176e-08
9.54231e-06
-7.3273e-09
9.53613e-06
1.20691e-08
9.532e-06
5.25987e-08
9.52504e-06
5.15128e-08
9.52423e-06
6.5276e-08
9.52835e-06
1.0626e-07
9.52996e-06
1.24622e-07
9.53034e-06
1.17946e-07
9.53401e-06
1.15504e-07
9.53996e-06
1.22446e-07
9.54389e-06
1.24759e-07
1.16514e-07
9.54644e-06
1.00072e-05
-1.93593e-08
1.00213e-05
4.13747e-08
1.00072e-05
-5.69032e-08
9.99723e-06
-1.28236e-07
1.00047e-05
-8.63021e-09
1.00047e-05
4.39658e-08
1.00075e-05
6.27547e-08
1.00078e-05
5.00219e-08
9.99821e-06
2.2578e-09
9.99218e-06
1.81041e-08
9.98844e-06
5.63344e-08
9.98205e-06
5.79041e-08
9.98069e-06
6.6636e-08
9.98479e-06
1.02162e-07
9.98725e-06
1.22158e-07
9.98781e-06
1.17384e-07
9.99064e-06
1.12677e-07
9.99627e-06
1.16816e-07
1.00008e-05
1.2023e-07
1.13733e-07
1.00036e-05
1.04855e-05
-1.62126e-08
1.04989e-05
2.79587e-08
1.04868e-05
-4.47682e-08
1.0474e-05
-1.15506e-07
1.04808e-05
-1.53865e-08
1.04827e-05
4.20314e-08
1.04837e-05
6.1813e-08
1.04833e-05
5.03983e-08
1.04756e-05
9.98237e-09
1.04702e-05
2.35252e-08
1.04668e-05
5.96628e-08
1.0461e-05
6.37073e-08
1.04592e-05
6.85049e-08
1.0463e-05
9.82899e-08
1.04662e-05
1.18941e-07
1.04672e-05
1.1642e-07
1.04694e-05
1.10465e-07
1.04745e-05
1.11754e-07
1.04794e-05
1.15297e-07
1.10621e-07
1.04825e-05
1.09868e-05
-1.3012e-08
1.09991e-05
1.56891e-08
1.09893e-05
-3.5024e-08
1.09746e-05
-1.0079e-07
1.09796e-05
-2.03897e-08
1.09837e-05
3.79176e-08
1.09838e-05
6.1757e-08
1.09822e-05
5.20368e-08
1.09755e-05
1.66675e-08
1.09709e-05
2.80716e-08
1.09682e-05
6.24063e-08
1.0963e-05
6.88979e-08
1.09607e-05
7.07875e-08
1.09642e-05
9.48346e-08
1.0968e-05
1.15154e-07
1.09695e-05
1.14875e-07
1.09713e-05
1.08624e-07
1.09757e-05
1.07365e-07
1.09808e-05
1.10209e-07
1.07137e-07
1.09843e-05
1.15123e-05
-9.93048e-09
1.15229e-05
5.04771e-09
1.15158e-05
-2.78749e-08
1.15001e-05
-8.50718e-08
1.15025e-05
-2.28006e-08
1.15084e-05
3.20039e-08
1.15086e-05
6.15482e-08
1.15056e-05
5.4988e-08
1.14992e-05
2.30908e-08
1.14955e-05
3.1798e-08
1.14936e-05
6.43378e-08
1.14891e-05
7.33751e-08
1.14865e-05
7.3368e-08
1.14894e-05
9.1907e-08
1.14935e-05
1.11087e-07
1.14957e-05
1.12668e-07
1.14974e-05
1.06877e-07
1.15012e-05
1.03659e-07
1.15062e-05
1.05194e-07
1.03306e-07
1.151e-05
1.2063e-05
-7.13057e-09
1.20716e-05
-3.55043e-09
1.2067e-05
-2.3276e-08
1.20513e-05
-6.93814e-08
1.20507e-05
-2.2207e-08
1.20575e-05
2.52554e-08
1.20588e-05
6.0276e-08
1.2055e-05
5.87745e-08
1.20482e-05
2.98276e-08
1.2045e-05
3.50571e-08
1.20439e-05
6.53662e-08
1.20404e-05
7.69648e-08
1.20377e-05
7.60658e-08
1.204e-05
8.95869e-08
1.20441e-05
1.06945e-07
1.20469e-05
1.09901e-07
1.20488e-05
1.04942e-07
1.20519e-05
1.00534e-07
1.20567e-05
1.00461e-07
9.91827e-08
1.20608e-05
1.26402e-05
-4.72264e-09
1.26465e-05
-9.87887e-09
1.2644e-05
-2.08024e-08
1.26294e-05
-5.47072e-08
1.26258e-05
-1.86579e-08
1.26322e-05
1.88751e-08
1.26351e-05
5.73784e-08
1.26312e-05
6.26373e-08
1.2624e-05
3.70632e-08
1.26207e-05
3.83591e-08
1.26205e-05
6.55974e-08
1.2618e-05
7.94255e-08
1.26154e-05
7.86947e-08
1.26171e-05
8.79001e-08
1.26211e-05
1.02858e-07
1.26243e-05
1.06776e-07
1.26265e-05
1.02676e-07
1.26293e-05
9.77602e-08
1.26336e-05
9.61823e-08
9.48421e-08
1.26379e-05
1.3245e-05
-2.76735e-09
1.32491e-05
-1.39525e-08
1.3248e-05
-1.97246e-08
1.32351e-05
-4.18034e-08
1.32292e-05
-1.27478e-08
1.3234e-05
1.40719e-08
1.32385e-05
5.28247e-08
1.32355e-05
6.56633e-08
1.32279e-05
4.46611e-08
1.32241e-05
4.21858e-08
1.32244e-05
6.52973e-08
1.32231e-05
8.06583e-08
1.32208e-05
8.10073e-08
1.3222e-05
8.67297e-08
1.32258e-05
9.90146e-08
1.32292e-05
1.03389e-07
1.32318e-05
1.00117e-07
1.32345e-05
9.50795e-08
1.32382e-05
9.24132e-08
9.04371e-08
1.32426e-05
1.38787e-05
-1.26627e-09
1.38806e-05
-1.59172e-08
1.38802e-05
-1.92542e-08
1.38695e-05
-3.11395e-08
1.38621e-05
-5.39138e-09
1.38646e-05
1.16519e-08
1.38702e-05
4.72265e-08
1.38688e-05
6.70661e-08
1.38612e-05
5.21774e-08
1.38567e-05
4.6744e-08
1.38571e-05
6.48974e-08
1.38569e-05
8.08134e-08
1.38553e-05
8.26313e-08
1.3856e-05
8.59904e-08
1.38595e-05
9.55084e-08
1.38631e-05
9.98404e-08
1.38659e-05
9.73313e-08
1.38686e-05
9.2343e-08
1.3872e-05
8.90492e-08
8.61819e-08
1.38762e-05
1.45426e-05
-1.63913e-10
1.45426e-05
-1.59713e-08
1.4542e-05
-1.86689e-08
1.45339e-05
-2.29698e-08
1.45261e-05
2.38298e-09
1.45259e-05
1.18597e-08
1.45315e-05
4.16347e-08
1.4532e-05
6.64972e-08
1.45253e-05
5.89273e-08
1.45201e-05
5.19447e-08
1.45201e-05
6.49132e-08
1.45208e-05
8.00979e-08
1.452e-05
8.3398e-08
1.45206e-05
8.54328e-08
1.45237e-05
9.23799e-08
1.45273e-05
9.6278e-08
1.45303e-05
9.43451e-08
1.45331e-05
8.95116e-08
1.45362e-05
8.59225e-08
8.2249e-08
1.45401e-05
1.52381e-05
6.4487e-10
1.52367e-05
-1.46342e-08
1.52354e-05
-1.73818e-08
1.52296e-05
-1.70981e-08
1.52223e-05
9.67783e-09
1.52197e-05
1.44044e-08
1.52242e-05
3.71716e-08
1.52265e-05
6.41568e-08
1.52213e-05
6.41432e-08
1.52157e-05
5.75279e-08
1.5215e-05
6.56713e-08
1.52162e-05
7.88408e-08
1.52163e-05
8.33578e-08
1.5217e-05
8.47272e-08
1.52198e-05
8.96011e-08
1.52233e-05
9.2781e-08
1.52264e-05
9.12487e-08
1.52293e-05
8.65517e-08
1.52323e-05
8.28934e-08
7.869e-08
1.52359e-05
1.59667e-05
1.28898e-09
1.59646e-05
-1.25034e-08
1.59622e-05
-1.50624e-08
1.59581e-05
-1.29788e-08
1.5952e-05
1.58272e-08
1.59478e-05
1.86047e-08
1.59503e-05
3.4663e-08
1.59537e-05
6.0697e-08
1.59505e-05
6.73754e-08
1.59451e-05
6.2959e-08
1.59436e-05
6.71854e-08
1.59448e-05
7.75627e-08
1.59456e-05
8.25732e-08
1.59466e-05
8.37416e-08
1.59492e-05
8.70151e-08
1.59526e-05
8.93747e-08
1.59557e-05
8.81358e-08
1.59588e-05
8.34939e-08
1.59618e-05
7.98316e-08
7.54552e-08
1.59651e-05
1.673e-05
1.8962e-09
1.67275e-05
-1.0057e-08
1.67242e-05
-1.16991e-08
1.67211e-05
-9.91606e-09
1.67164e-05
2.05123e-08
1.67114e-05
2.36384e-08
1.67117e-05
3.43399e-08
1.67154e-05
5.7054e-08
1.67141e-05
6.86705e-08
1.67095e-05
6.75238e-08
1.67074e-05
6.92934e-08
1.67083e-05
7.66527e-08
1.67097e-05
8.12307e-08
1.6711e-05
8.24218e-08
1.67135e-05
8.45017e-08
1.67168e-05
8.60181e-08
1.672e-05
8.50054e-08
1.6723e-05
8.04666e-08
1.67262e-05
7.66498e-08
7.24179e-08
1.67292e-05
1.75297e-05
2.56809e-09
1.75274e-05
-7.76301e-09
1.75232e-05
-7.47093e-09
1.75204e-05
-7.1591e-09
1.75172e-05
2.37695e-08
1.7512e-05
2.87542e-08
1.75105e-05
3.59246e-08
1.75133e-05
5.41658e-08
1.75136e-05
6.83735e-08
1.75105e-05
7.07007e-08
1.75081e-05
7.16814e-08
1.75085e-05
7.61885e-08
1.751e-05
7.97399e-08
1.75117e-05
8.07227e-08
1.75142e-05
8.19986e-08
1.75176e-05
8.26899e-08
1.75208e-05
8.17666e-08
1.75237e-05
7.75416e-08
1.7527e-05
7.34029e-08
6.93896e-08
1.753e-05
1.83675e-05
3.37086e-09
1.83656e-05
-5.78077e-09
1.83608e-05
-2.74112e-09
1.83579e-05
-4.19705e-09
1.83557e-05
2.59021e-08
1.83512e-05
3.33283e-08
1.83482e-05
3.89032e-08
1.83497e-05
5.26242e-08
1.8351e-05
6.70805e-08
1.83493e-05
7.23878e-08
1.83472e-05
7.3813e-08
1.83473e-05
7.61271e-08
1.83486e-05
7.8376e-08
1.83506e-05
7.87669e-08
1.83531e-05
7.94403e-08
1.83564e-05
7.94185e-08
1.83598e-05
7.83702e-08
1.83627e-05
7.46203e-08
1.83659e-05
7.02554e-08
6.62481e-08
1.8369e-05
1.92454e-05
4.31958e-09
1.92438e-05
-4.11062e-09
1.92389e-05
2.11922e-09
1.92354e-05
-7.14546e-10
1.9234e-05
2.73018e-08
1.92303e-05
3.7011e-08
1.92266e-05
4.26537e-08