/*--------------------------------*- C++ -*----------------------------------*\
| =========                 |                                                 |
| \\      /  F ield         | OpenFOAM: The Open Source CFD Toolbox           |
|  \\    /   O peration     | Version:  3.0.1                                 |
|   \\  /    A nd           | Web:      www.OpenFOAM.org                      |
|    \\/     M anipulation  |                                                 |
\*---------------------------------------------------------------------------*/
FoamFile
{
    version     2.0;
    format      ascii;
    class       volVectorField;
    location    "1.6";
    object      U;
}
// * * * * * * * * * * * * * * * * * * * * * * * * * * * * * * * * * * * * * //

dimensions      [0 1 -1 0 0 0 0];

internalField   nonuniform List<vector> 
9600
(
(0.844019 0.00020154 0)
(1.17467 0.00501806 0)
(0.805838 -0.00720298 0)
(1.13674 -0.00297156 0)
(0.922118 -0.000506157 0)
(1.15034 0.00572433 0)
(0.834575 0.00652235 0)
(1.12977 0.000815165 0)
(0.848979 -0.00928696 0)
(1.12022 -0.00259565 0)
(0.899093 -0.00692413 0)
(1.11873 6.20773e-05 0)
(0.895083 -0.00429012 0)
(1.11201 0.00141571 0)
(0.890171 0.00851964 0)
(1.10284 0.0033675 0)
(0.873994 0.012066 0)
(1.09783 0.00192 0)
(0.843258 0.00698743 0)
(1.09659 0.00211963 0)
(0.853696 -3.3242e-05 0)
(1.16251 0.0054556 0)
(0.826806 -0.00703339 0)
(1.1254 -0.00389844 0)
(0.933356 -0.000905995 0)
(1.13872 0.00670304 0)
(0.858454 0.00657514 0)
(1.10753 0.000874634 0)
(0.879753 -0.00940673 0)
(1.09779 -0.00311408 0)
(0.927277 -0.00713343 0)
(1.09548 0.000327521 0)
(0.929699 -0.00429418 0)
(1.08108 0.00162719 0)
(0.934028 0.00857475 0)
(1.05508 0.00380133 0)
(0.937415 0.0121306 0)
(1.02382 0.00276996 0)
(0.942433 0.0082101 0)
(0.982634 0.00268826 0)
(0.872654 -0.000205977 0)
(1.13887 0.00582027 0)
(0.860437 -0.00696555 0)
(1.10258 -0.00459544 0)
(0.953144 -0.00111842 0)
(1.11526 0.00763177 0)
(0.898437 0.00676008 0)
(1.0749 0.000828605 0)
(0.921433 -0.00946474 0)
(1.06312 -0.00363584 0)
(0.963189 -0.0071418 0)
(1.06088 0.000332639 0)
(0.970237 -0.00406173 0)
(1.04133 0.00161011 0)
(0.976442 0.00901885 0)
(1.01708 0.00392749 0)
(0.977319 0.0126126 0)
(0.995413 0.00281655 0)
(0.976004 0.00855038 0)
(0.975116 0.00320167 0)
(0.898007 -0.000318882 0)
(1.10761 0.00598878 0)
(0.899586 -0.00682976 0)
(1.07288 -0.00517728 0)
(0.974569 -0.00130701 0)
(1.08532 0.00819417 0)
(0.939456 0.00709775 0)
(1.04361 0.00069387 0)
(0.957469 -0.00939675 0)
(1.03125 -0.00411612 0)
(0.988802 -0.00710809 0)
(1.03254 0.00017843 0)
(0.994254 -0.003699 0)
(1.01493 0.0015299 0)
(0.994493 0.0094331 0)
(1.00202 0.00399998 0)
(0.988708 0.0130398 0)
(0.991408 0.00288388 0)
(0.982685 0.00907662 0)
(0.98054 0.00395109 0)
(0.925355 -0.000383193 0)
(1.07461 0.00602754 0)
(0.93648 -0.00663681 0)
(1.04367 -0.00568333 0)
(0.991004 -0.00148086 0)
(1.05614 0.00851225 0)
(0.970523 0.00748974 0)
(1.02177 0.000573366 0)
(0.980369 -0.00927444 0)
(1.01092 -0.00451025 0)
(1.0001 -0.00711198 0)
(1.01618 3.17762e-05 0)
(1.00249 -0.0033413 0)
(1.00258 0.00154581 0)
(0.997391 0.0096317 0)
(0.996927 0.00420849 0)
(0.990182 0.0131775 0)
(0.990861 0.00316272 0)
(0.98467 0.00946325 0)
(0.982834 0.00468987 0)
(0.950277 -0.000395681 0)
(1.04577 0.00597553 0)
(0.965627 -0.00643872 0)
(1.02102 -0.00606319 0)
(0.999511 -0.0016241 0)
(1.03282 0.00868511 0)
(0.988771 0.0078248 0)
(1.01072 0.00051279 0)
(0.992065 -0.00914233 0)
(1.00139 -0.00478069 0)
(1.0025 -0.00713208 0)
(1.00799 -9.06057e-05 0)
(1.00319 -0.00301101 0)
(0.997262 0.00162787 0)
(0.995718 0.00975097 0)
(0.99452 0.00442171 0)
(0.989775 0.0131783 0)
(0.990954 0.00350772 0)
(0.986058 0.00952414 0)
(0.984765 0.00550249 0)
(0.969786 -0.000372271 0)
(1.02476 0.00586611 0)
(0.985345 -0.00626283 0)
(1.00711 -0.00628501 0)
(1.00121 -0.00173466 0)
(1.01669 0.00874896 0)
(0.997173 0.00804164 0)
(1.00713 0.000493666 0)
(0.997546 -0.00899624 0)
(0.998089 -0.00494792 0)
(1.00168 -0.00713518 0)
(1.00354 -0.000212423 0)
(1.00152 -0.00270043 0)
(0.994574 0.00173348 0)
(0.993664 0.00984532 0)
(0.993178 0.00458113 0)
(0.989485 0.0131185 0)
(0.991584 0.00383216 0)
(0.987619 0.00943734 0)
(0.986876 0.00630498 0)
(0.982996 -0.000334669 0)
(1.01201 0.00573351 0)
(0.99691 -0.00611877 0)
(1.00056 -0.00636514 0)
(0.999273 -0.00181325 0)
(1.00645 0.00872783 0)
(1.0002 0.00813175 0)
(1.00702 0.000480238 0)
(1.00037 -0.00882651 0)
(0.997417 -0.00504473 0)
(1.00036 -0.00709756 0)
(1.00063 -0.000333959 0)
(0.999389 -0.00240228 0)
(0.992862 0.0018333 0)
(0.992247 0.00990241 0)
(0.992601 0.00471318 0)
(0.989794 0.012977 0)
(0.992549 0.00416379 0)
(0.989452 0.00926955 0)
(0.988998 0.00709294 0)
(0.990768 -0.000298419 0)
(1.00561 0.00559797 0)
(1.00279 -0.00600486 0)
(0.998431 -0.00634188 0)
(0.996561 -0.00184411 0)
(1.00025 0.00864238 0)
(1.00109 0.00811458 0)
(1.00787 0.000450347 0)
(1.00206 -0.00863237 0)
(0.997587 -0.00509003 0)
(0.99931 -0.00701014 0)
(0.99849 -0.000447361 0)
(0.997403 -0.00211411 0)
(0.991628 0.00190731 0)
(0.991545 0.00991873 0)
(0.992622 0.00482878 0)
(0.99066 0.0127446 0)
(0.993718 0.00453288 0)
(0.991371 0.00903021 0)
(0.991006 0.00784252 0)
(0.994766 -0.000270071 0)
(1.003 0.00546512 0)
(1.00533 -0.00591054 0)
(0.998146 -0.00625303 0)
(0.994541 -0.0018249 0)
(0.996695 0.0085073 0)
(1.00144 0.00802019 0)
(1.00865 0.00040041 0)
(1.00307 -0.00841711 0)
(0.997895 -0.00509669 0)
(0.998579 -0.00687596 0)
(0.996889 -0.000545707 0)
(0.995763 -0.00183313 0)
(0.99075 0.00195121 0)
(0.991367 0.0098896 0)
(0.99303 0.00492653 0)
(0.991803 0.0124333 0)
(0.994924 0.00493787 0)
(0.99315 0.00873358 0)
(0.992769 0.00852985 0)
(0.996588 -0.000249825 0)
(1.0022 0.00533419 0)
(1.00616 -0.00582266 0)
(0.998251 -0.00612875 0)
(0.993474 -0.00177274 0)
(0.99489 0.00833525 0)
(1.00176 0.00787795 0)
(1.00912 0.00033694 0)
(1.0036 -0.0081844 0)
(0.998093 -0.00507575 0)
(0.998081 -0.00670281 0)
(0.99574 -0.000628248 0)
(0.994545 -0.0015591 0)
(0.99021 0.00196865 0)
(0.991485 0.0098017 0)
(0.993607 0.00502133 0)
(0.992938 0.0120537 0)
(0.995989 0.00537174 0)
(0.994647 0.00841207 0)
(0.994195 0.00912991 0)
(0.997345 -0.000235473 0)
(1.00207 0.00520354 0)
(1.00624 -0.00573092 0)
(0.998221 -0.0059894 0)
(0.993084 -0.00169946 0)
(0.994198 0.00813714 0)
(1.00212 0.007711 0)
(1.00936 0.000267183 0)
(1.0038 -0.00793604 0)
(0.998135 -0.00503523 0)
(0.997738 -0.00650074 0)
(0.994978 -0.000696516 0)
(0.993746 -0.00129545 0)
(0.989991 0.00196462 0)
(0.99175 0.00965685 0)
(0.994204 0.00512201 0)
(0.99391 0.011624 0)
(0.996824 0.00582488 0)
(0.995829 0.00809609 0)
(0.99528 0.00962031 0)
(0.997652 -0.000224858 0)
(1.00214 0.00507197 0)
(1.00606 -0.00562956 0)
(0.998017 -0.00584536 0)
(0.993046 -0.00161769 0)
(0.994139 0.00791912 0)
(1.0025 0.00753377 0)
(1.00944 0.000196914 0)
(1.00382 -0.00767318 0)
(0.998066 -0.00497975 0)
(0.997504 -0.0062815 0)
(0.994522 -0.000755101 0)
(0.993306 -0.00104762 0)
(0.990048 0.00195293 0)
(0.992093 0.00946162 0)
(0.994761 0.00523071 0)
(0.994698 0.0111625 0)
(0.997431 0.00627828 0)
(0.996743 0.00782666 0)
(0.996088 0.0099901 0)
(0.997795 -0.000216603 0)
(1.00222 0.00493841 0)
(1.00584 -0.0055163 0)
(0.997743 -0.00570085 0)
(0.993157 -0.00153685 0)
(0.994372 0.00768424 0)
(1.00284 0.00735335 0)
(1.00943 0.000129649 0)
(1.00377 -0.00739711 0)
(0.997955 -0.00491132 0)
(0.997358 -0.00605606 0)
(0.99429 -0.000805359 0)
(0.993124 -0.000816979 0)
(0.990299 0.00194524 0)
(0.992476 0.00921956 0)
(0.995257 0.00535417 0)
(0.995332 0.010682 0)
(0.997854 0.00671269 0)
(0.997453 0.00763447 0)
(0.996696 0.0102308 0)
(0.99789 -0.000209849 0)
(1.00227 0.00480183 0)
(1.00565 -0.00539107 0)
(0.9975 -0.00555698 0)
(0.993325 -0.00145952 0)
(0.994686 0.00743453 0)
(1.0031 0.00717319 0)
(1.00934 6.58661e-05 0)
(1.0037 -0.00711094 0)
(0.997854 -0.00482879 0)
(0.997291 -0.00583048 0)
(0.994206 -0.000844844 0)
(0.993101 -0.000606041 0)
(0.990654 0.00194159 0)
(0.992864 0.00894367 0)
(0.995676 0.00548753 0)
(0.995842 0.0102104 0)
(0.998136 0.00710742 0)
(0.998007 0.00751765 0)
(0.997168 0.0103493 0)
(0.997974 -0.00020413 0)
(1.00227 0.00466171 0)
(1.0055 -0.00525519 0)
(0.997338 -0.0054136 0)
(0.99352 -0.00138581 0)
(0.99498 0.00717171 0)
(1.00326 0.00699425 0)
(1.00919 5.78946e-06 0)
(1.00362 -0.00681888 0)
(0.997786 -0.00473207 0)
(0.997293 -0.00560717 0)
(0.994219 -0.000873341 0)
(0.993162 -0.00041976 0)
(0.991041 0.00194603 0)
(0.993222 0.00864337 0)
(0.996006 0.00562071 0)
(0.996241 0.00976564 0)
(0.998304 0.00745266 0)
(0.998436 0.00746851 0)
(0.997544 0.0103746 0)
(0.998054 -0.00019909 0)
(1.00224 0.00451784 0)
(1.00536 -0.00511047 0)
(0.997262 -0.00527018 0)
(0.993733 -0.00131438 0)
(0.995224 0.00689815 0)
(1.00331 0.00681548 0)
(1.00898 -5.06151e-05 0)
(1.00354 -0.00652511 0)
(0.997754 -0.00461933 0)
(0.997349 -0.00539171 0)
(0.994294 -0.000888389 0)
(0.993261 -0.000254142 0)
(0.99142 0.00196225 0)
(0.993531 0.00832693 0)
(0.996245 0.00574465 0)
(0.996543 0.00935552 0)
(0.998382 0.00774481 0)
(0.998762 0.00747414 0)
(0.997855 0.0103319 0)
(0.998127 -0.000194422 0)
(1.00218 0.00437014 0)
(1.00523 -0.00495862 0)
(0.997256 -0.00512649 0)
(0.993959 -0.00124382 0)
(0.995427 0.00661722 0)
(1.00328 0.00663451 0)
(1.00872 -0.000102357 0)
(1.00346 -0.00623521 0)
(0.99775 -0.00448725 0)
(0.997443 -0.00518728 0)
(0.99441 -0.000890535 0)
(0.993377 -0.000105678 0)
(0.991777 0.00198272 0)
(0.993787 0.00801063 0)
(0.996407 0.00585038 0)
(0.996768 0.00898577 0)
(0.998398 0.00798664 0)
(0.999006 0.00751714 0)
(0.998123 0.0102361 0)
(0.998187 -0.000189978 0)
(1.00212 0.00421903 0)
(1.00509 -0.00480154 0)
(0.9973 -0.0049818 0)
(0.994191 -0.00117417 0)
(0.995609 0.0063324 0)
(1.00318 0.00645003 0)
(1.00843 -0.000148542 0)
(1.00338 -0.00595247 0)
(0.997764 -0.00433837 0)
(0.997557 -0.00499097 0)
(0.994558 -0.000882996 0)
(0.993498 3.00623e-05 0)
(0.992117 0.00200285 0)
(0.994004 0.00770671 0)
(0.996517 0.00593556 0)
(0.996939 0.00865678 0)
(0.998381 0.00818016 0)
(0.999187 0.00757716 0)
(0.998368 0.0100976 0)
(0.99823 -0.000185837 0)
(1.00206 0.00406529 0)
(1.00494 -0.0046408 0)
(0.997374 -0.00483528 0)
(0.994421 -0.00110676 0)
(0.995787 0.00604609 0)
(1.00305 0.00626131 0)
(1.00812 -0.00018881 0)
(1.00328 -0.00567903 0)
(0.99779 -0.00417252 0)
(0.997677 -0.00480268 0)
(0.994729 -0.000868766 0)
(0.993621 0.000159725 0)
(0.992449 0.00202069 0)
(0.994197 0.00741852 0)
(0.996601 0.00600521 0)
(0.997082 0.00835762 0)
(0.998356 0.00833296 0)
(0.999324 0.00764878 0)
(0.998605 0.00992818 0)
(0.998256 -0.00018203 0)
(1.00202 0.00390912 0)
(1.00477 -0.00447708 0)
(0.997466 -0.00468682 0)
(0.994645 -0.00103998 0)
(0.995969 0.0057615 0)
(1.0029 0.00606547 0)
(1.00782 -0.00022041 0)
(1.00317 -0.005418 0)
(0.997823 -0.00398973 0)
(0.997794 -0.0046198 0)
(0.994919 -0.000847693 0)
(0.993743 0.000291204 0)
(0.992782 0.00202956 0)
(0.994382 0.00714955 0)
(0.996678 0.00606535 0)
(0.997214 0.00807645 0)
(0.99834 0.00845153 0)
(0.99943 0.00773524 0)
(0.998843 0.00973795 0)
(0.998267 -0.000178459 0)
(1.00198 0.0037509 0)
(1.0046 -0.00431207 0)
(0.997569 -0.00453476 0)
(0.994862 -0.000975846 0)
(0.996156 0.00548173 0)
(1.00275 0.0058621 0)
(1.00752 -0.000242891 0)
(1.00306 -0.00516893 0)
(0.997863 -0.00379389 0)
(0.997904 -0.00443653 0)
(0.995125 -0.00082224 0)
(0.993861 0.000432177 0)
(0.993119 0.0020292 0)
(0.994569 0.0068953 0)
(0.996757 0.00612317 0)
(0.997347 0.00780987 0)
(0.998346 0.00852694 0)
(0.999512 0.00783183 0)
(0.999082 0.00953557 0)
(0.998273 -0.00017555 0)
(1.00195 0.00359264 0)
(1.00442 -0.00414868 0)
(0.997675 -0.00437705 0)
(0.995073 -0.000918812 0)
(0.996344 0.00520751 0)
(1.00259 0.00565218 0)
(1.00723 -0.000256644 0)
(1.00294 -0.00493014 0)
(0.997906 -0.00358556 0)
(0.998006 -0.00425182 0)
(0.995343 -0.00080369 0)
(0.993978 0.000582336 0)
(0.993457 0.00202431 0)
(0.994765 0.00664493 0)
(0.996841 0.00618045 0)
(0.997485 0.00756259 0)
(0.998377 0.00855218 0)
(0.999576 0.00793486 0)
(0.99932 0.0093291 0)
(0.998281 -0.000173389 0)
(1.00191 0.00343511 0)
(1.00425 -0.00398671 0)
(0.997781 -0.00421501 0)
(0.995283 -0.000867577 0)
(0.996529 0.00493834 0)
(1.00242 0.00543601 0)
(1.00694 -0.000261589 0)
(1.00282 -0.00470111 0)
(0.99795 -0.00337131 0)
(0.998101 -0.00405964 0)
(0.995571 -0.000798151 0)
(0.994095 0.000738311 0)
(0.993791 0.00202247 0)
(0.994975 0.0063956 0)
(0.996928 0.00623886 0)
(0.997629 0.00734101 0)
(0.998433 0.00852916 0)
(0.999629 0.00804228 0)
(0.99955 0.0091215 0)
(0.998302 -0.000171734 0)
(1.00186 0.00327797 0)
(1.00408 -0.00382783 0)
(0.997882 -0.00404592 0)
(0.995495 -0.000824719 0)
(0.996708 0.00467714 0)
(1.00225 0.00521072 0)
(1.00666 -0.000258165 0)
(1.0027 -0.004483 0)
(0.997993 -0.00316056 0)
(0.998192 -0.00385315 0)
(0.995805 -0.000798479 0)
(0.994217 0.000897796 0)
(0.994115 0.00203296 0)
(0.995202 0.00614922 0)
(0.997018 0.00629926 0)
(0.997778 0.00715208 0)
(0.998513 0.00846371 0)
(0.999672 0.0081496 0)
(0.999766 0.00891828 0)
(0.998339 -0.000171337 0)
(1.00179 0.00312295 0)
(1.00392 -0.00367427 0)
(0.997979 -0.00386683 0)
(0.995711 -0.000790479 0)
(0.99688 0.00442499 0)
(1.00208 0.00497719 0)
(1.00638 -0.000249352 0)
(1.00258 -0.00426783 0)
(0.998035 -0.00295309 0)
(0.998281 -0.00363567 0)
(0.996043 -0.000805772 0)
(0.994348 0.00105297 0)
(0.994425 0.00205591 0)
(0.995448 0.00590362 0)
(0.997111 0.00635712 0)
(0.997929 0.00699451 0)
(0.998615 0.00835553 0)
(0.999711 0.00825055 0)
(0.99996 0.00873677 0)
(0.998392 -0.000171918 0)
(1.00171 0.00297227 0)
(1.00376 -0.00352756 0)
(0.998071 -0.00368055 0)
(0.995931 -0.000759649 0)
(0.997046 0.00417775 0)
(1.00191 0.00474261 0)
(1.00609 -0.000242507 0)
(1.00247 -0.00404833 0)
(0.998075 -0.00274975 0)
(0.99837 -0.00340879 0)
(0.996283 -0.000815014 0)
(0.99449 0.00119856 0)
(0.994718 0.00209322 0)
(0.995714 0.00565794 0)
(0.997207 0.00640452 0)
(0.998079 0.00686597 0)
(0.998737 0.00820117 0)
(0.999749 0.00833308 0)
(1.00012 0.00859907 0)
(0.998459 -0.000173988 0)
(1.00162 0.00282744 0)
(1.00361 -0.00339062 0)
(0.998161 -0.00348893 0)
(0.996154 -0.000735825 0)
(0.997209 0.00393465 0)
(1.00174 0.00451168 0)
(1.0058 -0.00023887 0)
(1.00237 -0.00382875 0)
(0.998112 -0.00255387 0)
(0.99846 -0.00317133 0)
(0.996527 -0.000813914 0)
(0.994646 0.00133597 0)
(0.994993 0.00214992 0)
(0.995997 0.00541793 0)
(0.99731 0.00643915 0)
(0.998222 0.00677346 0)
(0.998878 0.00800634 0)
(0.999797 0.0083732 0)
(1.00025 0.00852503 0)
(0.998534 -0.000177352 0)
(1.00153 0.00268802 0)
(1.00347 -0.00326429 0)
(0.99825 -0.00329014 0)
(0.996377 -0.000717431 0)
(0.997372 0.00369482 0)
(1.00157 0.00428586 0)
(1.00551 -0.000241304 0)
(1.00228 -0.00360869 0)
(0.998148 -0.00236292 0)
(0.998549 -0.00293211 0)
(0.996774 -0.000807872 0)
(0.994817 0.00146923 0)
(0.995252 0.00222821 0)
(0.996294 0.00518721 0)
(0.997426 0.00645633 0)
(0.998353 0.00671892 0)
(0.999033 0.0077889 0)
(0.999863 0.00834278 0)
(1.00035 0.00850825 0)
(0.998612 -0.000182864 0)
(1.00144 0.00255582 0)
(1.00332 -0.00314819 0)
(0.998337 -0.00308722 0)
(0.996599 -0.000696075 0)
(0.997536 0.00345084 0)
(1.00141 0.00407045 0)
(1.00521 -0.000258495 0)
(1.00219 -0.00339329 0)
(0.998183 -0.00216882 0)
(0.998636 -0.00269394 0)
(0.997026 -0.000794515 0)
(0.995005 0.0015991 0)
(0.995496 0.00232598 0)
(0.996602 0.00496457 0)
(0.99756 0.00644429 0)
(0.998471 0.00669248 0)
(0.999192 0.00757296 0)
(0.999957 0.00823604 0)
(1.00042 0.00850426 0)
(0.998691 -0.000190609 0)
(1.00135 0.00243231 0)
(1.00318 -0.00304187 0)
(0.998425 -0.00288593 0)
(0.996816 -0.00066944 0)
(0.997703 0.0031997 0)
(1.00125 0.00387241 0)
(1.00492 -0.000279799 0)
(1.00212 -0.00318455 0)
(0.998219 -0.00197099 0)
(0.998717 -0.00245709 0)
(0.997285 -0.000769767 0)
(0.995208 0.00172331 0)
(0.995727 0.00244261 0)
(0.996917 0.00475248 0)
(0.997717 0.00639613 0)
(0.998577 0.00668244 0)
(0.999348 0.00737892 0)
(1.00008 0.0080763 0)
(1.0005 0.00846178 0)
(0.998768 -0.000200073 0)
(1.00127 0.00231696 0)
(1.00304 -0.00294363 0)
(0.998513 -0.00268942 0)
(0.997026 -0.000634987 0)
(0.997871 0.00293988 0)
(1.0011 0.00369393 0)
(1.00462 -0.000299595 0)
(1.00205 -0.0029903 0)
(0.998256 -0.00176462 0)
(0.998791 -0.00221532 0)
(0.997549 -0.000735508 0)
(0.995429 0.0018449 0)
(0.995944 0.00258302 0)
(0.997232 0.00455519 0)
(0.997898 0.00631118 0)
(0.998678 0.00667736 0)
(0.999495 0.0072106 0)
(1.00022 0.00789382 0)
(1.0006 0.0083569 0)
(0.998843 -0.00021166 0)
(1.00119 0.00220891 0)
(1.0029 -0.00285073 0)
(0.998602 -0.00250362 0)
(0.997227 -0.000584239 0)
(0.99804 0.00266484 0)
(1.00096 0.00352884 0)
(1.00432 -0.000317538 0)
(1.00199 -0.00281621 0)
(0.998297 -0.00155367 0)
(0.998857 -0.00196411 0)
(0.997818 -0.00069816 0)
(0.995669 0.00195974 0)
(0.996147 0.00274717 0)
(0.997542 0.00437336 0)
(0.998106 0.00618711 0)
(0.998777 0.00667184 0)
(0.999631 0.0070623 0)
(1.00036 0.00770974 0)
(1.00071 0.008206 0)
(0.998917 -0.000224481 0)
(1.00111 0.00210695 0)
(1.00276 -0.00276029 0)
(0.998692 -0.0023342 0)
(0.997417 -0.000512525 0)
(0.998208 0.00237732 0)
(1.00082 0.00337029 0)
(1.00403 -0.000320159 0)
(1.00194 -0.00267006 0)
(0.998345 -0.00134329 0)
(0.998914 -0.00169871 0)
(0.998091 -0.000659903 0)
(0.99593 0.00206063 0)
(0.996337 0.00293171 0)
(0.99784 0.0042125 0)
(0.99834 0.0060201 0)
(0.998881 0.00666346 0)
(0.999754 0.00693 0)
(1.00052 0.00752125 0)
(1.00085 0.00803389 0)
(0.99899 -0.000238621 0)
(1.00102 0.00200875 0)
(1.00262 -0.00266701 0)
(0.998785 -0.00218976 0)
(0.997597 -0.000417699 0)
(0.998373 0.00208654 0)
(1.0007 0.00321786 0)
(1.00373 -0.000293813 0)
(1.0019 -0.00255085 0)
(0.998405 -0.00113647 0)
(0.99896 -0.0014087 0)
(0.998363 -0.000603299 0)
(0.996215 0.00213851 0)
(0.996515 0.00312697 0)
(0.998119 0.00408553 0)
(0.998599 0.00581485 0)
(0.998995 0.00664291 0)
(0.999861 0.0068177 0)
(1.00067 0.00731684 0)
(1.001 0.00784916 0)
(0.999061 -0.000253245 0)
(1.00094 0.00191307 0)
(1.00248 -0.00256863 0)
(0.99888 -0.00207583 0)
(0.997766 -0.000305938 0)
(0.998533 0.00180434 0)
(1.00058 0.00305465 0)
(1.00344 -0.00023304 0)
(1.00186 -0.00244493 0)
(0.998478 -0.000944507 0)
(0.998997 -0.00109977 0)
(0.998631 -0.000524826 0)
(0.996524 0.00217911 0)
(0.996684 0.00331459 0)
(0.99837 0.00400014 0)
(0.99888 0.00558137 0)
(0.999127 0.00659458 0)
(0.999949 0.00673676 0)
(1.00082 0.00710509 0)
(1.00116 0.00764929 0)
(0.999131 -0.000267196 0)
(1.00085 0.00181822 0)
(1.00234 -0.00246226 0)
(0.998979 -0.0019941 0)
(0.997926 -0.000182699 0)
(0.998686 0.00154177 0)
(1.00047 0.00287388 0)
(1.00314 -0.000140139 0)
(1.00183 -0.00233963 0)
(0.998568 -0.000765835 0)
(0.999027 -0.000772064 0)
(0.998887 -0.000429522 0)
(0.996856 0.0021748 0)
(0.996853 0.00347828 0)
(0.99859 0.00395631 0)
(0.999175 0.00533054 0)
(0.999285 0.00650212 0)
(1.00002 0.0066886 0)
(1.00096 0.00690745 0)
(1.00133 0.00742486 0)
(0.999199 -0.000279657 0)
(1.00076 0.00172141 0)
(1.0022 -0.00234167 0)
(0.999081 -0.0019458 0)
(0.998076 -5.13733e-05 0)
(0.99883 0.00130531 0)
(1.00037 0.00267693 0)
(1.00284 -1.972e-05 0)
(1.0018 -0.00221659 0)
(0.998677 -0.000614517 0)
(0.99905 -0.00044271 0)
(0.999124 -0.000315207 0)
(0.997209 0.00212864 0)
(0.997027 0.00360564 0)
(0.998777 0.00395019 0)
(0.999473 0.00507772 0)
(0.999477 0.00635535 0)
(1.00009 0.00665672 0)
(1.00107 0.00674579 0)
(1.00151 0.00718095 0)
(0.999266 -0.000290469 0)
(1.00068 0.00162021 0)
(1.00205 -0.0022044 0)
(0.999186 -0.00192317 0)
(0.998219 7.14957e-05 0)
(0.998962 0.00110553 0)
(1.00029 0.00246148 0)
(1.00255 0.000117904 0)
(1.00177 -0.00206811 0)
(0.998805 -0.00049223 0)
(0.999071 -0.000127209 0)
(0.999337 -0.000168085 0)
(0.997576 0.00205989 0)
(0.997216 0.00368929 0)
(0.99893 0.00397348 0)
(0.999763 0.00484328 0)
(0.999706 0.00615714 0)
(1.00016 0.0066158 0)
(1.00115 0.00663149 0)
(1.00168 0.00694053 0)
(0.99933 -0.000298049 0)
(1.00059 0.00151276 0)
(1.00191 -0.00205368 0)
(0.999294 -0.00191737 0)
(0.998357 0.000171583 0)
(0.999081 0.000950455 0)
(1.00023 0.0022345 0)
(1.00227 0.000274198 0)
(1.00173 -0.00188188 0)
(0.998949 -0.00039493 0)
(0.999094 0.000169226 0)
(0.999524 1.62269e-05 0)
(0.99795 0.00198706 0)
(0.997423 0.00372707 0)
(0.999055 0.00401434 0)
(1.00003 0.00464359 0)
(0.999967 0.00592272 0)
(1.00025 0.00654344 0)
(1.0012 0.00655621 0)
(1.00183 0.00673125 0)
(0.999392 -0.000301048 0)
(1.00051 0.0013962 0)
(1.00175 -0.0018852 0)
(0.999402 -0.0019257 0)
(0.998492 0.000239337 0)
(0.999186 0.000835317 0)
(1.00017 0.00200334 0)
(1.002 0.000433448 0)
(1.00168 -0.00165458 0)
(0.999106 -0.000317571 0)
(0.999126 0.000426106 0)
(0.999682 0.000221094 0)
(0.998321 0.00191851 0)
(0.997651 0.003725 0)
(0.999158 0.00406655 0)
(1.00028 0.00448525 0)
(1.00025 0.00566855 0)
(1.00037 0.00642805 0)
(1.00124 0.0064942 0)
(1.00194 0.00656638 0)
(0.999451 -0.000299776 0)
(1.00043 0.0012701 0)
(1.0016 -0.00170197 0)
(0.999507 -0.00193998 0)
(0.998627 0.000267906 0)
(0.999278 0.000757252 0)
(1.00013 0.00177864 0)
(1.00175 0.00058209 0)
(1.00162 -0.00138696 0)
(0.999269 -0.000241815 0)
(0.99917 0.00063489 0)
(0.999816 0.000430192 0)
(0.998685 0.00185857 0)
(0.997903 0.00368838 0)
(0.999249 0.0041223 0)
(1.00048 0.00436732 0)
(1.00055 0.00540537 0)
(1.00052 0.00626989 0)
(1.00127 0.00642181 0)
(1.00201 0.00643807 0)
(0.999507 -0.000292529 0)
(1.00036 0.00113375 0)
(1.00144 -0.00150793 0)
(0.999606 -0.00194896 0)
(0.998763 0.000253685 0)
(0.999359 0.000710516 0)
(1.00011 0.0015662 0)
(1.00152 0.000713772 0)
(1.00154 -0.00109105 0)
(0.99943 -0.000160138 0)
(0.999225 0.00080823 0)
(0.999929 0.000639725 0)
(0.999035 0.0018141 0)
(0.998178 0.00362061 0)
(0.999334 0.00417039 0)
(1.00065 0.0042885 0)
(1.00085 0.00514332 0)
(1.00072 0.00607253 0)
(1.00132 0.00632884 0)
(1.00206 0.00632672 0)
(0.999559 -0.000280344 0)
(1.00029 0.000990109 0)
(1.00128 -0.00130928 0)
(0.999697 -0.00194397 0)
(0.998904 0.000204413 0)
(0.999431 0.000683048 0)
(1.00009 0.00137649 0)
(1.00131 0.000818341 0)
(1.00146 -0.000788324 0)
(0.999584 -5.64924e-05 0)
(0.999294 0.000953397 0)
(1.00002 0.000842451 0)
(0.999365 0.00178738 0)
(0.998475 0.00352565 0)
(0.999422 0.00420082 0)
(1.00078 0.00425009 0)
(1.00113 0.00490041 0)
(1.00094 0.00584012 0)
(1.00138 0.00621309 0)
(1.00209 0.00621577 0)
(0.999609 -0.000261881 0)
(1.00023 0.000838366 0)
(1.00112 -0.00111067 0)
(0.999776 -0.00191422 0)
(0.999049 0.000126835 0)
(0.999497 0.000674611 0)
(1.00008 0.00122188 0)
(1.00114 0.000885921 0)
(1.00137 -0.000496591 0)
(0.999728 7.07483e-05 0)
(0.999371 0.00107836 0)
(1.0001 0.00103465 0)
(0.999672 0.00177748 0)
(0.99879 0.00340905 0)
(0.999525 0.00420048 0)
(1.00087 0.00424325 0)
(1.00139 0.0046961 0)
(1.0012 0.00558009 0)
(1.00147 0.00607068 0)
(1.00211 0.0060997 0)
(0.999655 -0.000238134 0)
(1.00018 0.000681847 0)
(1.00096 -0.000918975 0)
(0.999842 -0.00184519 0)
(0.999198 2.94533e-05 0)
(0.999563 0.000679078 0)
(1.00007 0.00111851 0)
(1.00099 0.000907801 0)
(1.00128 -0.000240701 0)
(0.999862 0.000207689 0)
(0.999456 0.00119278 0)
(1.00016 0.00121866 0)
(0.999951 0.001784 0)
(0.999116 0.00328091 0)
(0.999649 0.00416352 0)
(1.00094 0.00424896 0)
(1.0016 0.00454301 0)
(1.00147 0.00531083 0)
(1.00159 0.00589436 0)
(1.00213 0.0059758 0)
(0.999697 -0.000210264 0)
(1.00014 0.000525546 0)
(1.00081 -0.000743874 0)
(0.999894 -0.00173252 0)
(0.999349 -7.5542e-05 0)
(0.999633 0.000683597 0)
(1.00007 0.0010684 0)
(1.00086 0.0009055 0)
(1.00121 -3.69138e-05 0)
(0.999989 0.000340729 0)
(0.999549 0.00129307 0)
(1.00022 0.00139143 0)
(1.0002 0.00180581 0)
(0.999447 0.0031457 0)
(0.999799 0.00409366 0)
(1.00099 0.00424793 0)
(1.00178 0.00443695 0)
(1.00174 0.00505772 0)
(1.00175 0.0056839 0)
(1.00216 0.00583862 0)
(0.999736 -0.000178338 0)
(1.0001 0.000372519 0)
(1.00068 -0.000588662 0)
(0.999931 -0.00157978 0)
(0.9995 -0.000177325 0)
(0.999713 0.000668298 0)
(1.00006 0.00104891 0)
(1.00074 0.000902876 0)
(1.00114 0.000127498 0)
(1.00011 0.000465022 0)
(0.999652 0.001384 0)
(1.00026 0.00155805 0)
(1.00041 0.00185093 0)
(0.999775 0.00300897 0)
(0.999975 0.00399191 0)
(1.00104 0.00422752 0)
(1.00191 0.00435906 0)
(1.00198 0.00483578 0)
(1.00193 0.00545204 0)
(1.00222 0.00568289 0)
(0.999771 -0.000145893 0)
(1.00008 0.000231633 0)
(1.00056 -0.000461296 0)
(0.999956 -0.00139413 0)
(0.999646 -0.000262948 0)
(0.999805 0.00061327 0)
(1.00006 0.00104721 0)
(1.00064 0.000925968 0)
(1.00108 0.000263955 0)
(1.00024 0.000561936 0)
(0.999765 0.00145605 0)
(1.0003 0.00170991 0)
(1.00059 0.00191631 0)
(1.00009 0.00288667 0)
(1.00018 0.00386291 0)
(1.0011 0.00418449 0)
(1.002 0.00429662 0)
(1.00221 0.0046472 0)
(1.00214 0.00521648 0)
(1.00229 0.00550868 0)
(0.999803 -0.000113814 0)
(1.00007 0.000106319 0)
(1.00046 -0.000364966 0)
(0.999969 -0.001192 0)
(0.99978 -0.000317749 0)
(0.999912 0.000528745 0)
(1.00007 0.00104747 0)
(1.00055 0.000977594 0)
(1.00102 0.000386385 0)
(1.00036 0.000635009 0)
(0.999895 0.00150578 0)
(1.00035 0.00184284 0)
(1.00074 0.00199378 0)
(1.00039 0.0027879 0)
(1.0004 0.00371439 0)
(1.00118 0.00410824 0)
(1.00208 0.00423554 0)
(1.00239 0.00448572 0)
(1.00234 0.00498479 0)
(1.00239 0.0053207 0)
(0.999832 -8.39216e-05 0)
(1.00006 -5.67755e-07 0)
(1.00038 -0.000299737 0)
(0.999977 -0.00098585 0)
(0.999898 -0.000329944 0)
(1.00003 0.000426773 0)
(1.0001 0.00103306 0)
(1.00047 0.00104782 0)
(1.00096 0.00051588 0)
(1.00048 0.000702715 0)
(1.00004 0.00153159 0)
(1.0004 0.00195289 0)
(1.00086 0.00208297 0)
(1.00065 0.00271453 0)
(1.00063 0.00356517 0)
(1.00128 0.00400265 0)
(1.00214 0.0041634 0)
(1.00255 0.00434854 0)
(1.00255 0.0047603 0)
(1.00251 0.00512056 0)
(0.999858 -5.76527e-05 0)
(1.00006 -8.32395e-05 0)
(1.00032 -0.000262613 0)
(0.999983 -0.000788725 0)
(0.999998 -0.000295832 0)
(1.00015 0.000321407 0)
(1.00015 0.000991377 0)
(1.0004 0.00112554 0)
(1.0009 0.000662599 0)
(1.0006 0.000769932 0)
(1.0002 0.00152778 0)
(1.00048 0.00202584 0)
(1.00096 0.00217417 0)
(1.00089 0.00266545 0)
(1.00087 0.00342644 0)
(1.0014 0.00388347 0)
(1.00221 0.004074 0)
(1.00267 0.00422928 0)
(1.00274 0.00455201 0)
(1.00266 0.00490729 0)
(0.999881 -3.58458e-05 0)
(1.00006 -0.000139035 0)
(1.00028 -0.000244382 0)
(0.999995 -0.000611924 0)
(1.00008 -0.000223628 0)
(1.00027 0.000235648 0)
(1.00023 0.000916088 0)
(1.00037 0.00118837 0)
(1.00084 0.000822088 0)
(1.00069 0.000851202 0)
(1.00037 0.00151268 0)
(1.00057 0.0020618 0)
(1.00105 0.0022516 0)
(1.0011 0.0026402 0)
(1.00109 0.00329862 0)
(1.00153 0.00375725 0)
(1.00228 0.00396766 0)
(1.00278 0.00411137 0)
(1.00292 0.00436498 0)
(1.00282 0.00468129 0)
(0.999902 -1.86956e-05 0)
(1.00006 -0.000170517 0)
(1.00026 -0.000237292 0)
(1.00001 -0.000460999 0)
(1.00014 -0.000128114 0)
(1.00038 0.000182075 0)
(1.00033 0.000819958 0)
(1.00036 0.00122708 0)
(1.00078 0.000979933 0)
(1.00077 0.000947851 0)
(1.00054 0.00149861 0)
(1.00069 0.00206243 0)
(1.00114 0.00230364 0)
(1.00128 0.0026312 0)
(1.00131 0.00319105 0)
(1.00168 0.00363169 0)
(1.00235 0.00385669 0)
(1.00287 0.00399024 0)
(1.00306 0.00419892 0)
(1.00299 0.00445459 0)
(0.99992 -5.77202e-06 0)
(1.00006 -0.000178276 0)
(1.00025 -0.000233305 0)
(1.00004 -0.000342484 0)
(1.00019 -1.65506e-05 0)
(1.00048 0.000169727 0)
(1.00044 0.00072016 0)
(1.00039 0.00122667 0)
(1.00073 0.00112828 0)
(1.00083 0.00106487 0)
(1.0007 0.0014958 0)
(1.00082 0.00203789 0)
(1.00123 0.00232558 0)
(1.00144 0.0026175 0)
(1.00151 0.00309932 0)
(1.00183 0.00350843 0)
(1.00244 0.00374221 0)
(1.00295 0.00386861 0)
(1.00318 0.004047 0)
(1.00315 0.00424182 0)
(0.999936 3.4955e-06 0)
(1.00006 -0.000167808 0)
(1.00025 -0.000222 0)
(1.00008 -0.000255242 0)
(1.00023 9.5425e-05 0)
(1.00056 0.000199507 0)
(1.00056 0.000636065 0)
(1.00045 0.0011831 0)
(1.00071 0.00124688 0)
(1.00087 0.00119709 0)
(1.00084 0.00151082 0)
(1.00096 0.00200444 0)
(1.00134 0.00232229 0)
(1.00159 0.00259401 0)
(1.0017 0.00301329 0)
(1.00197 0.00339253 0)
(1.00252 0.0036231 0)
(1.00302 0.00374609 0)
(1.00328 0.0039039 0)
(1.0033 0.00404791 0)
(0.999951 1.00742e-05 0)
(1.00006 -0.000146776 0)
(1.00025 -0.000199127 0)
(1.00013 -0.000192807 0)
(1.00028 0.000191577 0)
(1.00061 0.000257267 0)
(1.00067 0.000581345 0)
(1.00054 0.00111738 0)
(1.00071 0.00132245 0)
(1.00091 0.00132683 0)
(1.00096 0.0015493 0)
(1.00111 0.00196922 0)
(1.00145 0.00229503 0)
(1.00173 0.00256043 0)
(1.00188 0.00292534 0)
(1.00212 0.00328141 0)
(1.00261 0.0035073 0)
(1.0031 0.00362016 0)
(1.00336 0.00376806 0)
(1.00341 0.00387564 0)
(0.999963 1.56277e-05 0)
(1.00006 -0.00012062 0)
(1.00026 -0.000163205 0)
(1.00019 -0.000148787 0)
(1.00032 0.00026731 0)
(1.00065 0.000332438 0)
(1.00077 0.000562006 0)
(1.00065 0.00104791 0)
(1.00075 0.00135493 0)
(1.00094 0.00143576 0)
(1.00106 0.00161135 0)
(1.00124 0.00194646 0)
(1.00157 0.0022536 0)
(1.00186 0.00251329 0)
(1.00204 0.00283498 0)
(1.00227 0.00316215 0)
(1.0027 0.00339488 0)
(1.00317 0.00349195 0)
(1.00344 0.00362891 0)
(1.0035 0.00372275 0)
(0.999973 2.13644e-05 0)
(1.00005 -9.4467e-05 0)
(1.00026 -0.000114976 0)
(1.00025 -0.000112643 0)
(1.00037 0.000319452 0)
(1.00068 0.000414152 0)
(1.00085 0.000581011 0)
(1.00076 0.000987686 0)
(1.00081 0.00134973 0)
(1.00098 0.0015126 0)
(1.00114 0.00167689 0)
(1.00135 0.00194422 0)
(1.00168 0.00221371 0)
(1.00199 0.00245391 0)
(1.0022 0.00274528 0)
(1.00242 0.00303634 0)
(1.00278 0.00327627 0)
(1.00323 0.00337115 0)
(1.00351 0.00348164 0)
(1.00357 0.00357947 0)
(0.999982 2.87517e-05 0)
(1.00005 -7.16773e-05 0)
(1.00026 -5.9743e-05 0)
(1.0003 -7.57467e-05 0)
(1.00042 0.000350976 0)
(1.00071 0.000488821 0)
(1.00091 0.000630266 0)
(1.00087 0.000951548 0)
(1.0009 0.00132256 0)
(1.00103 0.00155701 0)
(1.00121 0.00173105 0)
(1.00144 0.00195262 0)
(1.00178 0.00218122 0)
(1.0021 0.00239015 0)
(1.00234 0.00265099 0)
(1.00256 0.00291152 0)
(1.00288 0.00314304 0)
(1.00328 0.0032544 0)
(1.00357 0.00333486 0)
(1.00362 0.00343081 0)
(0.999988 3.76402e-05 0)
(1.00005 -5.27368e-05 0)
(1.00025 -1.98621e-06 0)
(1.00035 -3.37014e-05 0)
(1.00048 0.000370646 0)
(1.00074 0.000550105 0)
(1.00095 0.000693039 0)
(1.00096 0.000944099 0)
(1.001 0.00129037 0)
(1.0011 0.00156637 0)
(1.00127 0.00177053 0)
(1.00152 0.00196423 0)
(1.00186 0.00215763 0)
(1.0022 0.00233359 0)
(1.00247 0.00255352 0)
(1.00269 0.00278682 0)
(1.00298 0.00300001 0)
(1.00333 0.00312621 0)
(1.00361 0.00319642 0)