/*--------------------------------*- C++ -*----------------------------------*\
| =========                 |                                                 |
| \\      /  F ield         | OpenFOAM: The Open Source CFD Toolbox           |
|  \\    /   O peration     | Version:  3.0.1                                 |
|   \\  /    A nd           | Web:      www.OpenFOAM.org                      |
|    \\/     M anipulation  |                                                 |
\*---------------------------------------------------------------------------*/
FoamFile
{
    version     2.0;
    format      ascii;
    class       volScalarField;
    location    "0.6";
    object      p;
}
// * * * * * * * * * * * * * * * * * * * * * * * * * * * * * * * * * * * * * //

dimensions      [0 2 -2 0 0 0 0];

internalField   nonuniform List<scalar> 
9600
(
2.54366e-11
0.000638069
0.00123352
0.00142766
-0.000499418
0.000219129
0.000479117
0.000808821
0.000155165
0.000838188
0.000445711
0.00138361
0.000403185
0.00166715
0.00176917
0.00295097
0.00344197
0.00562546
0.00607049
0.00897096
1.12675e-06
0.000641096
0.00123169
0.00141319
-0.000479873
0.000220728
0.000476185
0.000812445
0.000152851
0.00082499
0.000447466
0.00138364
0.000412908
0.00166555
0.00177512
0.00292367
0.00345458
0.00547017
0.00609872
0.00857944
3.43377e-06
0.000644261
0.00122521
0.00139567
-0.000457681
0.000222294
0.000475726
0.000817934
0.000147211
0.000817471
0.000454534
0.00138249
0.00042535
0.00166247
0.00178338
0.00289652
0.00346795
0.00537231
0.00610652
0.00813947
6.84318e-06
0.000646158
0.00121617
0.00137606
-0.000434992
0.000226214
0.00047765
0.000822918
0.000138364
0.000813609
0.000465464
0.00137799
0.00043852
0.00165834
0.00179281
0.00286341
0.00348052
0.00525491
0.00608255
0.00773512
1.17633e-05
0.000646979
0.00120486
0.0013538
-0.000410135
0.000231735
0.000480609
0.000826561
0.000126349
0.000811292
0.000478552
0.00136992
0.000452674
0.00165176
0.00180172
0.00282466
0.00349241
0.00513023
0.00603647
0.00737083
1.83687e-05
0.000646642
0.0011915
0.00132939
-0.000382606
0.000237705
0.000483804
0.000828606
0.000110546
0.00080956
0.000492878
0.00135881
0.00046789
0.00164174
0.0018113
0.00278198
0.00350274
0.00500088
0.00597022
0.00703451
2.64301e-05
0.000645178
0.0011768
0.00130338
-0.000353057
0.000243453
0.00048681
0.000829407
9.53465e-05
0.000807932
0.000508074
0.00134519
0.000484425
0.00162853
0.00182259
0.00273549
0.00351067
0.00486946
0.00588118
0.00671832
3.55729e-05
0.000642871
0.00116138
0.00127598
-0.000322022
0.000248819
0.000489564
0.000829524
8.06226e-05
0.000805988
0.000524195
0.00132953
0.000502529
0.00161229
0.00183554
0.00268543
0.00351357
0.00473061
0.00576685
0.00641846
4.54728e-05
0.000640013
0.00114552
0.00124734
-0.0002898
0.000253877
0.000492148
0.000829338
6.64343e-05
0.000803337
0.000541459
0.00131199
0.000522184
0.00159301
0.00184966
0.00263247
0.00350993
0.00459939
0.00562667
0.00613199
5.59188e-05
0.000636788
0.00112935
0.00121764
-0.000256533
0.000258754
0.000494667
0.000829008
5.29462e-05
0.000799986
0.000560048
0.00129147
0.000543192
0.00157078
0.00186426
0.00257753
0.00349755
0.0044708
0.00546183
0.00585546
6.68045e-05
0.000633284
0.00111293
0.00118707
-0.000222275
0.000263578
0.000497199
0.000828547
4.02075e-05
0.000795584
0.00058009
0.00127041
0.000565232
0.00154588
0.00187856
0.00252166
0.0034743
0.00434479
0.00527479
0.00558496
7.80893e-05
0.000629537
0.0010963
0.00115574
-0.000187042
0.000268447
0.000499781
0.000827915
2.82057e-05
0.000789949
0.000601624
0.00124778
0.000587906
0.00151687
0.00189155
0.00246577
0.00343862
0.00422129
0.00506876
0.0053167
8.97623e-05
0.000625547
0.00107949
0.00112376
-0.000150855
0.000273421
0.000502409
0.000827059
1.69221e-05
0.00078294
0.000624554
0.00122377
0.000610829
0.00148845
0.00190207
0.00241045
0.0033896
0.004099
0.00484762
0.00504768
0.00010182
0.000621296
0.0010625
0.00109114
-0.000113758
0.000278547
0.000505044
0.000825954
6.32244e-06
0.000774513
0.000648686
0.00119864
0.000633552
0.00145896
0.00190911
0.00235607
0.00332707
0.0039756
0.00461548
0.00477608
0.000114258
0.000616756
0.00104529
0.00105789
-7.58253e-05
0.000283871
0.000507609
0.000824607
-3.65481e-06
0.000764725
0.000673767
0.00117267
0.00065552
0.00142886
0.00191192
0.00230248
0.00325174
0.00384876
0.00437592
0.00450103
0.000127068
0.000611893
0.00102782
0.00102401
-3.71585e-05
0.000289456
0.000509998
0.000823068
-1.31013e-05
0.000753701
0.000699503
0.00114618
0.000676189
0.00139851
0.00190986
0.00224893
0.00316488
0.00371691
0.00413164
0.00422226
0.00014024
0.000606681
0.00101004
0.000989525
2.12517e-06
0.000295391
0.000512068
0.000821434
-2.21613e-05
0.000741624
0.000725592
0.00111945
0.000695121
0.001368
0.00190267
0.00219444
0.00306738
0.00357886
0.00388481
0.00393989
0.000153761
0.000601092
0.000991911
0.000954462
4.19014e-05
0.000301802
0.000513639
0.000819842
-3.10009e-05
0.000728617
0.000751773
0.00109272
0.000711996
0.00133717
0.00189046
0.00213793
0.0029595
0.00343461
0.00363761
0.00365414
0.000167616
0.000595106
0.000973382
0.000918889
8.20167e-05
0.000308854
0.000514502
0.00081845
-3.97465e-05
0.00071477
0.000777851
0.00106612
0.000726677
0.00130559
0.00187338
0.0020787
0.0028411
0.00328477
0.00339219
0.00336548
0.000181787
0.000588711
0.000954418
0.000882906
0.000122294
0.00031675
0.000514436
0.000817424
-4.85052e-05
0.000700195
0.000803734
0.00103952
0.000739281
0.0012727
0.00185119
0.00201669
0.00271185
0.00312928
0.00315064
0.00307511
0.00019625
0.000581902
0.00093498
0.000846633
0.000164908
0.000325731
0.000513205
0.000816921
-5.73683e-05
0.000684973
0.000829506
0.00101258
0.000750104
0.00123812
0.00182327
0.00195244
0.00257159
0.00296678
0.00291485
0.00278506
0.000210983
0.000574684
0.000915016
0.000810195
0.000204823
0.000336083
0.000510542
0.000817053
-6.6325e-05
0.000669114
0.000855496
0.000984754
0.000759324
0.0012017
0.00178864
0.0018864
0.00242068
0.00279552
0.00268634
0.00249814
0.000225955
0.000567074
0.00089446
0.000773768
0.000244076
0.000348097
0.00050622
0.000817866
-7.52172e-05
0.000652822
0.000882217
0.000955528
0.000766628
0.00116378
0.00174561
0.00182019
0.00226091
0.00261388
0.00246575
0.0022181
0.000241126
0.000559108
0.00087323
0.000737555
0.000282368
0.000362064
0.000500102
0.000819287
-8.36886e-05
0.000637762
0.000910208
0.00092455
0.00077133
0.00112533
0.00169194
0.00175238
0.002096
0.0024206
0.0022521
0.00194932
0.000256453
0.000550849
0.000851223
0.000701747
0.000319396
0.000378236
0.000492119
0.000821193
-9.13218e-05
0.000627023
0.00094005
0.000891971
0.000772259
0.00108758
0.00162612
0.00168119
0.00193029
0.00221556
0.00204274
0.00169593
0.000271878
0.000542388
0.0008283
0.000666556
0.000354846
0.000396808
0.000482291
0.000823248
-9.74756e-05
0.000608134
0.000972128
0.00085853
0.000767463
0.00105176
0.00154832
0.00160366
0.0017674
0.00200048
0.00183342
0.00146064
0.000287325
0.000533843
0.000804291
0.000632221
0.000388398
0.000417954
0.000470721
0.000824832
-0.000101177
0.00058343
0.00100625
0.000825392
0.000754496
0.00101835
0.00145952
0.00151648
0.00160978
0.00177922
0.00161896
0.00124296
0.000302687
0.000525368
0.000779027
0.000598979
0.000419805
0.000441664
0.000457775
0.00082539
-0.000101673
0.000547987
0.00104173
0.000794045
0.000730992
0.000986822
0.00136238
0.00141704
0.00145807
0.00155762
0.00139553
0.00103767
0.000317848
0.00051717
0.000752291
0.000567028
0.000448834
0.000467767
0.000444176
0.000824107
-9.82636e-05
0.000507047
0.00107706
0.000766124
0.000695402
0.000955724
0.00126037
0.0013038
0.00131091
0.001342
0.00116337
0.000835323
0.000332675
0.000509504
0.000723803
0.00053649
0.000475316
0.000495985
0.000430812
0.000819923
-9.04472e-05
0.000461525
0.00110992
0.000743201
0.00064715
0.000922707
0.00115701
0.00117657
0.00116538
0.00113739
0.000927686
0.000625941
0.000346985
0.000502669
0.00069334
0.000507383
0.000499215
0.000525818
0.000418868
0.000812027
-7.82474e-05
0.000412666
0.0011378
0.000726306
0.000586336
0.000884317
0.00105572
0.00103672
0.00101798
0.000946093
0.000696138
0.000404945
0.000360585
0.000497017
0.000660733
0.000479579
0.000520675
0.000556547
0.000409748
0.000799932
-6.2362e-05
0.000361943
0.00115854
0.000715758
0.000514032
0.000837499
0.000958996
0.000887006
0.000865149
0.000767006
0.000475222
0.000175622
0.000373264
0.000492925
0.000625865
0.000452781
0.000540109
0.000587246
0.000404507
0.000783636
-4.39692e-05
0.000310843
0.00117048
0.000711022
0.000432057
0.000779759
0.000868567
0.000730939
0.000703661
0.000597162
0.00026893
-5.39915e-05
0.000384755
0.000490718
0.000588809
0.000426539
0.000558128
0.000616936
0.000403566
0.000763696
-2.46881e-05
0.000260396
0.00117267
0.000711058
0.000342263
0.000709132
0.00078597
0.00057272
0.000530754
0.000433447
7.89661e-05
-0.000275997
0.000394787
0.000490662
0.000549853
0.000400162
0.000575493
0.000644769
0.000407407
0.000741387
-6.41432e-06
0.000211063
0.00116459
0.000714787
0.000246469
0.000623927
0.000711722
0.000417488
0.0003441
0.000271708
-9.38545e-05
-0.000484571
0.00040311
0.000493027
0.000509518
0.000372549
0.000593393
0.00067028
0.000415358
0.000718724
9.64186e-06
0.000162123
0.00114668
0.000721134
0.000146909
0.000522652
0.000644433
0.00027175
0.000143523
0.000105461
-0.000249708
-0.000674845
0.000409465
0.000498017
0.000468631
0.000342288
0.000612518
0.000693467
0.000425671
0.000697677
2.3104e-05
0.000112135
0.00111813
0.000729657
4.6645e-05
0.000403504
0.000580036
0.000142919
-6.62972e-05
-7.34556e-05
-0.000391656
-0.000841839
0.000413605
0.000505621
0.000428384
0.000307847
0.000632559
0.000715071
0.000436272
0.000679654
3.45634e-05
5.94811e-05
0.00107827
0.000740535
-5.01921e-05
0.000265121
0.000513042
3.65088e-05
-0.000276666
-0.00027138
-0.000527338
-0.000982313
0.000415309
0.000515597
0.000390295
0.000267844
0.00065315
0.000736773
0.000444489
0.000665068
4.62506e-05
2.59727e-06
0.00102576
0.000754459
-0.00013988
0.000107787
0.000436342
-4.63744e-05
-0.000477911
-0.000488989
-0.000667827
-0.00109879
0.000414392
0.000527588
0.000356026
0.000221354
0.000673134
0.000760765
0.000448255
0.000652841
6.11149e-05
-5.87703e-05
0.000957837
0.000770474
-0.000216175
-6.59041e-05
0.000341284
-0.000109059
-0.000659824
-0.000721059
-0.000823443
-0.00120012
0.000410703
0.000541039
0.000327434
0.000168086
0.000689699
0.000789278
0.000447396
0.000639934
8.15082e-05
-0.000123156
0.000870996
0.000785078
-0.00027276
-0.000250701
0.000219953
-0.000158385
-0.000813423
-0.000958773
-0.000999696
-0.00129879
0.000404172
0.000555182
0.000306322
0.000108248
0.000699242
0.00082394
0.000442555
0.000622481
0.000108532
-0.000185977
0.000763586
0.000791423
-0.000305998
-0.000437888
6.865e-05
-0.000204138
-0.000932983
-0.0011915
-0.00119674
-0.0014065
0.000394832
0.000569198
0.000294078
4.30063e-05
0.000697801
0.000865334
0.000436681
0.000596049
0.000141296
-0.000239604
0.000637137
0.000780371
-0.000317338
-0.000615528
-0.000110764
-0.000258348
-0.00101818
-0.00140745
-0.00141071
-0.00152992
0.000382854
0.000582074
0.00029165
-2.51966e-05
0.000681183
0.000912841
0.000434623
0.000557164
0.000176042
-0.000277617
0.000494859
0.000743941
-0.000311171
-0.00077276
-0.000311602
-0.000332241
-0.00107511
-0.00159511
-0.00163465
-0.00167036
0.000368629
0.000592574
0.00029939
-9.31787e-05
0.000646011
0.00096391
0.000441867
0.000505126
0.000205772
-0.00029507
0.000345927
0.000677987
-0.00029637
-0.000903103
-0.00052431
-0.000432872
-0.00111408
-0.00174613
-0.0018593
-0.00182714
0.000352645
0.000599409
0.000316974
-0.000156955
0.000590268
0.00101363
0.000463118
0.000441025
0.000222358
-0.000292523
0.000202569
0.000583342
-0.000285147
-0.00100549
-0.000738254
-0.000562072
-0.00114778
-0.00185713
-0.00207327
-0.0020002
0.000335598
0.000601402
0.000343113
-0.000212243
0.000513984
0.00105494
0.000500666
0.000369619
0.000219155
-0.000273467
7.53704e-05
0.000464417
-0.000287371
-0.00108294
-0.000943644
-0.000716899
-0.00118889
-0.00193115
-0.00226273
-0.00218761
0.000318368
0.000597585
0.000375511
-0.000255445
0.000418329
0.00108002
0.000554083
0.000299701
0.000192366
-0.000246596
-2.90964e-05
0.000331122
-0.000307822
-0.00114054
-0.00113242
-0.000890347
-0.00124756
-0.00197909
-0.0024152
-0.00238017
0.000301719
0.000587199
0.000411244
-0.000283237
0.000307338
0.00108189
0.000620232
0.000240456
0.000142387
-0.000222706
-0.000110185
0.000194421
-0.000347892
-0.00118512
-0.00129921
-0.00107255
-0.00132799
-0.00201528
-0.00252726
-0.0025617
0.000286415
0.000569962
0.000446727
-0.000293247
0.000187028
0.00105501
0.000691901
0.000199436
7.31686e-05
-0.000211541
-0.000169812
6.27271e-05
-0.000405563
-0.00122339
-0.0014421
-0.00125402
-0.00142754
-0.00205249
-0.00260818
-0.00271824
0.000273172
0.000546038
0.000478188
-0.000284485
6.60451e-05
0.000995925
0.000759899
0.000180658
-6.85354e-06
-0.000218826
-0.000214511
-5.90511e-05
-0.000476886
-0.00126012
-0.0015615
-0.00142715
-0.00154025
-0.00209657
-0.00266974
-0.00284598
0.000262305
0.000515869
0.000502492
-0.000257085
-4.61261e-05
0.000904564
0.000813978
0.00018363
-8.8297e-05
-0.000245469
-0.000251364
-0.00016773
-0.000558186
-0.00129935
-0.00165906
-0.00158464
-0.00165903
-0.0021477
-0.00272073
-0.00295063
0.000253782
0.000480776
0.000517574
-0.000213714
-0.000144675
0.000783672
0.000844668
0.000205683
-0.000163103
-0.000291345
-0.000286033
-0.000261049
-0.000644381
-0.00134478
-0.00173991
-0.00171994
-0.00177559
-0.00220339
-0.00276468
-0.00303902
0.000247434
0.000442456
0.000521964
-0.000136767
-0.000226187
0.000640353
0.000845163
0.000239096
-0.000224059
-0.000352629
-0.00032498
-0.000339667
-0.000729025
-0.00139838
-0.00181111
-0.00183151
-0.00187926
-0.0022574
-0.00280089
-0.00311447
0.000242862
0.000402733
0.000513972
-7.99024e-05
-0.000287433
0.000484819
0.000812452
0.000272382
-0.000269391
-0.000422519
-0.000371994
-0.000406419
-0.000807562
-0.00145799
-0.00187922
-0.00192521
-0.00196176
-0.00230155
-0.00282603
-0.00317481
0.000239403
0.000363481
0.000493547
-2.38025e-05
-0.000326845
0.000327685
0.000745925
0.000296202
-0.000299859
-0.000495617
-0.000428345
-0.000464203
-0.000876953
-0.00152047
-0.00194863
-0.00200812
-0.00202375
-0.0023252
-0.00283497
-0.0032148
0.000236384
0.000325367
0.000461845
2.62037e-05
-0.000345346
0.000177385
0.000648615
0.000303176
-0.000318607
-0.000567402
-0.000494071
-0.000517145
-0.000932936
-0.00158051
-0.00202152
-0.0020886
-0.00207264
-0.00232312
-0.0028187
-0.00322996
0.000232904
0.000289315
0.000421343
6.5614e-05
-0.00034344
4.02288e-05
0.000528351
0.000289585
-0.000331666
-0.000635597
-0.000567009
-0.0005685
-0.000975283
-0.00163146
-0.00209559
-0.00217316
-0.00211854
-0.00230142
-0.00276938
-0.00321482
0.000228187
0.000256853
0.000374876
9.17551e-05
-0.000332874
-8.01721e-05
0.000393749
0.000254224
-0.000343634
-0.000700657
-0.000647244
-0.000618628
-0.00100497
-0.00166823
-0.00216314
-0.00226421
-0.00217398
-0.00227195
-0.00268864
-0.00316062
0.000221622
0.00022692
0.000324803
0.000104227
-0.00031767
-0.000183025
0.00025282
0.000198238
-0.000357255
-0.000761363
-0.000737258
-0.000671012
-0.00101816
-0.00168836
-0.00221976
-0.00235553
-0.00224755
-0.00225424
-0.00258647
-0.00306111
0.000212707
0.000198713
0.000273026
0.000103644
-0.000302006
-0.000269565
0.000111465
0.000124756
-0.000375423
-0.000816161
-0.000834882
-0.000735728
-0.00101877
-0.00168259
-0.00226211
-0.00244215
-0.00233604
-0.00226529
-0.00248493
-0.002923
0.000201132
0.000171527
0.000220453
9.13055e-05
-0.000288633
-0.000342596
-2.75504e-05
3.73603e-05
-0.000398807
-0.00086522
-0.000936139
-0.000817708
-0.00101925
-0.00164607
-0.00227875
-0.00252222
-0.00243137
-0.00230774
-0.00240706
-0.00276082
0.000186564
0.000144796
0.000167656
6.87938e-05
-0.0002795
-0.000403851
-0.000161804
-6.22809e-05
-0.00042804
-0.000906011
-0.00103793
-0.000916438
-0.00103347
-0.00159065
-0.00225483
-0.00258632
-0.00253014
-0.00237033
-0.00236327
-0.00259909
0.000168767
0.000117876
0.000115133
3.7425e-05
-0.000275919
-0.000454916
-0.000289136
-0.00017171
-0.000465991
-0.000936544
-0.00113457
-0.00103255
-0.0010682
-0.00153088
-0.00219082
-0.00261368
-0.0026248
-0.002445
-0.00235026
-0.00245901
0.00014755
9.018e-05
6.32239e-05
-1.66134e-06
-0.000278907
-0.000497118
-0.000407897
-0.000288361
-0.000514436
-0.000960222
-0.00121638
-0.00115939
-0.00113116
-0.0014802
-0.00209864
-0.0025885
-0.00269562
-0.00252574
-0.00235937
-0.00235093
0.000122703
6.13246e-05
1.21116e-05
-4.7435e-05
-0.00028941
-0.000531935
-0.000516358
-0.000410093
-0.000574168
-0.000982315
-0.00127963
-0.00128429
-0.00122364
-0.00145251
-0.00199121
-0.00251158
-0.00271836
-0.00259888
-0.00238496
-0.00227494
9.41043e-05
3.09451e-05
-3.798e-05
-9.87358e-05
-0.000308141
-0.000561463
-0.000612927
-0.000534137
-0.000646089
-0.001006
-0.0013274
-0.00139472
-0.00133353
-0.00145892
-0.00188691
-0.00239396
-0.00267848
-0.00264003
-0.00241825
-0.00222671
6.17387e-05
-1.30959e-06
-8.66747e-05
-0.000154296
-0.000335554
-0.000588065
-0.000696484
-0.000656633
-0.000730936
-0.00103477
-0.00136289
-0.00148655
-0.00144756
-0.00149747
-0.00180385
-0.00225271
-0.00257768
-0.00262463
-0.00243783
-0.00219789
2.57675e-05
-3.57894e-05
-0.000133673
-0.000212685
-0.000371669
-0.000614237
-0.000767215
-0.000773347
-0.000827119
-0.00107358
-0.00138995
-0.00155883
-0.00155535
-0.00155834
-0.00175074
-0.00211083
-0.00243085
-0.00254
-0.00241431
-0.00216872
-1.34266e-05
-7.27968e-05
-0.000178957
-0.000272131
-0.000415933
-0.000642472
-0.000826567
-0.000880455
-0.000930267
-0.00112579
-0.00141461
-0.0016118
-0.00164952
-0.00163318
-0.00172735
-0.00198343
-0.00226013
-0.00239423
-0.0023255
-0.00210807
-5.51844e-05
-0.000112464
-0.000222909
-0.000330677
-0.000466855
-0.000675143
-0.000876877
-0.000975067
-0.0010352
-0.00119083
-0.00144335
-0.00164982
-0.0017236
-0.0017116
-0.00173034
-0.00187591
-0.00208335
-0.00220575
-0.00217284
-0.00199671
-9.8684e-05
-0.000154639
-0.000266146
-0.000386694
-0.00052203
-0.00071363
-0.00092123
-0.00105574
-0.00113664
-0.00126534
-0.00147937
-0.00167962
-0.00177433
-0.00177889
-0.0017531
-0.00179254
-0.00191071
-0.00199548
-0.00197269
-0.00183845
-0.000142973
-0.000198797
-0.000309303
-0.000439162
-0.000578787
-0.000757739
-0.000962892
-0.00112308
-0.00122936
-0.00134454
-0.001522
-0.00170549
-0.00180477
-0.0018204
-0.00177881
-0.00173363
-0.00175173
-0.00178097
-0.00175086
-0.00165487
-0.000187137
-0.000243862
-0.000352676
-0.000488046
-0.000634307
-0.000805694
-0.00100433
-0.0011794
-0.00130922
-0.00142301
-0.00156912
-0.00172864
-0.001821
-0.00183178
-0.00178356
-0.0016891
-0.001619
-0.00158738
-0.00154634
-0.00148496
-0.000230322
-0.000288507
-0.000395876
-0.000533759
-0.000686398
-0.000854751
-0.0010464
-0.00122709
-0.00137436
-0.00149452
-0.00161797
-0.00175005
-0.00182848
-0.00182138
-0.00176099
-0.00164416
-0.00151484
-0.00142949
-0.0013753
-0.00134185
-0.000271468
-0.000331379
-0.000437971
-0.00057642
-0.000733891
-0.0009022
-0.00108847
-0.00126904
-0.0014254
-0.00155272
-0.00166329
-0.00176971
-0.00183542
-0.0018119
-0.00172503
-0.00159272
-0.00143125
-0.0013028
-0.00123072
-0.00121711
-0.000309547
-0.000370956
-0.000477522
-0.000615634
-0.00077612
-0.000945751
-0.00112848
-0.00130721
-0.00146584
-0.00159568
-0.00169724
-0.00178038
-0.00183645
-0.00181499
-0.00171895
-0.00157891
-0.00139738
-0.00122164
-0.00110316
-0.00107082
-0.000343232
-0.000405797
-0.00051277
-0.000650381
-0.000812303
-0.000983281
-0.00116381
-0.00134024
-0.00149928
-0.00162981
-0.00172447
-0.00177796
-0.00179731
-0.00176116
-0.00166298
-0.00153913
-0.0014
-0.00126105
-0.00116291
-0.00113962
-0.000371452
-0.000434741
-0.000541833
-0.000678857
-0.000840697
-0.00101207
-0.00119062
-0.00136402
-0.00152131
-0.00165079
-0.00174825
-0.00180321
-0.00181549
-0.001776
-0.0016666
-0.0015101
-0.00133631
-0.00116813
-0.00104324
-0.00100364
-0.000394057
-0.000460067
-0.000569441
-0.000708077
-0.000870958
-0.00104342
-0.00122209
-0.00139415
-0.00155038
-0.0016781
-0.00177247
-0.00182273
-0.0018223
-0.0017696
-0.00165788
-0.00150139
-0.00133255
-0.00117646
-0.00106391
-0.00103201
0.01195
0.00678909
-0.000860092
-0.00665181
-0.00832651
-0.007444
-0.00623587
-0.00553099
-0.00524249
-0.00509667
-0.00499723
-0.00499523
-0.00505529
-0.00502208
-0.00488758
-0.00478227
-0.00473655
-0.00472241
-0.00473228
-0.00471255
-0.00463901
-0.00458112
-0.00456586
-0.00455016
-0.00452316
-0.00450209
-0.00448431
-0.00446618
-0.00445228
-0.00443748
-0.00442677
-0.00442533
-0.00443182
-0.00445173
-0.00448071
-0.00451702
-0.00456444
-0.00461288
-0.00466229
-0.00470754
-0.00474149
-0.00478226
-0.00482511
-0.00484179
-0.00483891
-0.00483962
-0.00484355
-0.00486957
-0.00493412
-0.00499825
-0.00503695
-0.00508148
-0.00513133
-0.00516089
-0.00517286
-0.00517911
-0.00520248
-0.00523424
-0.0052334
-0.00520696
-0.00520449
-0.00520632
-0.00518218
-0.00515341
-0.00513648
-0.00511385
-0.00507729
-0.0050439
-0.00501076
-0.00497517
-0.00493395
-0.00489252
-0.00484946
-0.0048035
-0.00475809
-0.00470645
-0.00465591
-0.00460464
-0.00455582
-0.00450542
-0.00444928
-0.00439428
-0.00433189
-0.00427357
-0.00421072
-0.00415212
-0.00409099
-0.00402989
-0.00396702
-0.00390117
-0.0038354
-0.00376417
-0.00369567
-0.00361961
-0.00354804
-0.0034659
-0.00338686
-0.00330633
-0.00320804
-0.00312442
0.0112288
0.00665585
-0.000768842
-0.00651197
-0.00824132
-0.00740234
-0.00620946
-0.00551232
-0.00522896
-0.00508621
-0.00498851
-0.00498787
-0.00504935
-0.00501719
-0.00488319
-0.00477823
-0.00473288
-0.00471905
-0.00472932
-0.00470998
-0.00463664
-0.00457887
-0.0045638
-0.00454827
-0.00452137
-0.00450039
-0.0044827
-0.00446464
-0.00445081
-0.00443608
-0.00442542
-0.00442404
-0.00443059
-0.00445055
-0.00447959
-0.00451594
-0.00456341
-0.00461191
-0.00466136
-0.00470667
-0.00474066
-0.00478145
-0.00482438
-0.00484112
-0.00483828
-0.00483902
-0.00484298
-0.00486902
-0.00493362
-0.00499781
-0.00503654
-0.00508108
-0.00513096
-0.00516057
-0.00517256
-0.00517883
-0.00520221
-0.00523401
-0.0052332
-0.00520677
-0.00520431
-0.00520617
-0.00518205
-0.00515329
-0.00513637
-0.00511376
-0.0050772
-0.00504382
-0.00501068
-0.0049751
-0.0049339
-0.00489247
-0.00484942
-0.00480346
-0.00475806
-0.00470642
-0.00465588
-0.00460462
-0.0045558
-0.00450541
-0.00444927
-0.00439427
-0.00433188
-0.00427356
-0.00421071
-0.00415211
-0.00409098
-0.00402989
-0.00396702
-0.00390117
-0.00383539
-0.00376417
-0.00369567
-0.00361961
-0.00354804
-0.0034659
-0.00338686
-0.00330633
-0.00320803
-0.0031244
0.010547
0.00653269
-0.000575922
-0.00624495
-0.00809172
-0.00734656
-0.00618336
-0.00549263
-0.0052124
-0.0050728
-0.00497777
-0.00497901
-0.00504201
-0.00501117
-0.00487823
-0.00477416
-0.00472934
-0.00471576
-0.00472635
-0.0047074
-0.0046343
-0.00457674
-0.00456192
-0.00454654
-0.00451976
-0.00449889
-0.0044813
-0.00446329
-0.00444952
-0.00443485
-0.00442423
-0.00442291
-0.00442951
-0.00444952
-0.0044786
-0.004515
-0.00456252
-0.00461107
-0.00466056
-0.00470592
-0.00473993
-0.00478075
-0.00482374
-0.00484054
-0.00483772
-0.00483849
-0.00484247
-0.00486851
-0.00493316
-0.00499742
-0.00503617
-0.00508073
-0.00513065
-0.00516028
-0.00517229
-0.00517858
-0.00520198
-0.00523381
-0.00523303
-0.00520659
-0.00520415
-0.00520604
-0.00518193
-0.00515317
-0.00513627
-0.00511367
-0.00507712
-0.00504375
-0.00501062
-0.00497505
-0.00493385
-0.00489243
-0.00484938
-0.00480343
-0.00475803
-0.0047064
-0.00465586
-0.0046046
-0.00455578
-0.00450539
-0.00444925
-0.00439426
-0.00433187
-0.00427355
-0.00421071
-0.0041521
-0.00409098
-0.00402988
-0.00396701
-0.00390117
-0.00383539
-0.00376417
-0.00369567
-0.00361961
-0.00354804
-0.0034659
-0.00338685
-0.00330633
-0.00320802
-0.00312437
0.00991732
0.00641831
-0.000332248
-0.00590949
-0.00788844
-0.00726907
-0.00614732
-0.00546448
-0.00518769
-0.00505295
-0.00496277
-0.00496682
-0.00503104
-0.0050016
-0.0048708
-0.00476874
-0.00472496
-0.00471156
-0.00472225
-0.00470372
-0.00463118
-0.00457411
-0.00455964
-0.00454449
-0.00451792
-0.0044973
-0.00447985
-0.0044619
-0.00444818
-0.00443356
-0.004423
-0.00442173
-0.00442837
-0.00444843
-0.00447758
-0.00451402
-0.00456159
-0.00461019
-0.00465973
-0.00470515
-0.00473917
-0.00478001
-0.00482305
-0.00483989
-0.0048371
-0.00483792
-0.0048419
-0.00486793
-0.00493264
-0.004997
-0.00503578
-0.00508035
-0.00513031
-0.00515995
-0.00517199
-0.00517829
-0.00520171
-0.00523359
-0.00523284
-0.00520639
-0.00520396
-0.0052059
-0.00518179
-0.00515304
-0.00513616
-0.00511358
-0.00507703
-0.00504367
-0.00501055
-0.00497499
-0.00493379
-0.00489237
-0.00484934
-0.00480339
-0.00475799
-0.00470637
-0.00465583
-0.00460457
-0.00455576
-0.00450538
-0.00444924
-0.00439425
-0.00433186
-0.00427354
-0.0042107
-0.0041521
-0.00409097
-0.00402988
-0.00396701
-0.00390117
-0.00383539
-0.00376417
-0.00369567
-0.00361961
-0.00354804
-0.0034659
-0.00338685
-0.00330633
-0.00320802
-0.00312434
0.00930472
0.00628158
-8.58504e-05
-0.00555766
-0.00766568
-0.00718179
-0.00610677
-0.00543057
-0.00515557
-0.00502621
-0.00494265
-0.00495035
-0.00501529
-0.00498724
-0.00485976
-0.00476112
-0.00471913
-0.00470591
-0.00471634
-0.0046982
-0.00462668
-0.00457051
-0.00455648
-0.00454164
-0.00451552
-0.00449537
-0.00447822
-0.00446038
-0.0044467
-0.00443214
-0.00442165
-0.00442043
-0.00442709
-0.00444721
-0.00447642
-0.0045129
-0.00456051
-0.00460916
-0.00465879
-0.00470431
-0.00473836
-0.00477917
-0.0048222
-0.00483907
-0.00483635
-0.00483723
-0.0048412
-0.00486719
-0.00493197
-0.00499645
-0.00503529
-0.00507989
-0.00512987
-0.00515952
-0.00517159
-0.00517793
-0.00520138
-0.00523329
-0.00523257
-0.00520613
-0.00520372
-0.0052057
-0.0051816
-0.00515286
-0.00513601
-0.00511345
-0.00507691
-0.00504355
-0.00501045
-0.0049749
-0.00493371
-0.0048923
-0.00484928
-0.00480333
-0.00475795
-0.00470632
-0.00465579
-0.00460454
-0.00455573
-0.00450535
-0.00444921
-0.00439423
-0.00433185
-0.00427353
-0.00421068
-0.00415208
-0.00409096
-0.00402987
-0.00396701
-0.00390116
-0.00383539
-0.00376417
-0.00369566
-0.00361961
-0.00354804
-0.00346591
-0.00338685
-0.00330633
-0.00320802
-0.00312429
0.00869883
0.00611032
0.000149403
-0.00520148
-0.00743175
-0.00708933
-0.00606582
-0.00539495
-0.00511951
-0.00499513
-0.00491897
-0.0049306
-0.00499569
-0.00496883
-0.00484548
-0.00475128
-0.00471171
-0.00469865
-0.00470841
-0.00469064
-0.00462065
-0.00456578
-0.00455223
-0.00453769
-0.00451221
-0.00449285
-0.00447626
-0.00445865
-0.00444505
-0.00443059
-0.0044202
-0.00441903
-0.00442568
-0.00444583
-0.00447511
-0.00451161
-0.00455922
-0.00460789
-0.00465763
-0.00470333
-0.00473747
-0.00477823
-0.00482118
-0.00483805
-0.00483542
-0.0048364
-0.00484034
-0.00486624
-0.00493105
-0.00499568
-0.00503466
-0.0050793
-0.00512925
-0.0051589
-0.00517104
-0.00517745
-0.00520092
-0.00523286
-0.00523217
-0.00520576
-0.0052034
-0.00520541
-0.00518133
-0.00515261
-0.00513579
-0.00511326
-0.00507673
-0.00504339
-0.00501031
-0.00497477
-0.0049336
-0.00489221
-0.00484919
-0.00480325
-0.00475788
-0.00470626
-0.00465574
-0.00460449
-0.00455568
-0.00450532
-0.00444918
-0.0043942
-0.00433182
-0.00427351
-0.00421067
-0.00415207
-0.00409095
-0.00402986
-0.003967
-0.00390116
-0.00383538
-0.00376416
-0.00369566
-0.00361961
-0.00354804
-0.00346591
-0.00338685
-0.00330635
-0.00320803
-0.00312424
0.00810088
0.00590499
0.000372083
-0.00484072
-0.00718548
-0.00699071
-0.00602471
-0.00535882
-0.00508103
-0.00496114
-0.00489285
-0.00490874
-0.00497378
-0.00494802
-0.00482917
-0.00473991
-0.00470303
-0.00469
-0.00469875
-0.00468133
-0.00461333
-0.00456009
-0.00454697
-0.00453263
-0.00450787
-0.00448952
-0.00447376
-0.00445656
-0.00444315
-0.00442888
-0.00441869
-0.00441758
-0.0044242
-0.00444436
-0.00447367
-0.00451016
-0.00455768
-0.00460629
-0.00465614
-0.0047021
-0.00473642
-0.00477714
-0.00481995
-0.00483681
-0.00483435
-0.00483546
-0.00483932
-0.00486502
-0.00492978
-0.00499461
-0.00503382
-0.00507851
-0.00512837
-0.005158
-0.00517026
-0.00517679
-0.00520027
-0.00523221
-0.00523158
-0.00520524
-0.00520293
-0.00520497
-0.00518091
-0.00515224
-0.00513547
-0.00511297
-0.00507646
-0.00504316
-0.0050101
-0.00497459
-0.00493343
-0.00489206
-0.00484906
-0.00480314
-0.00475778
-0.00470617
-0.00465565
-0.00460442
-0.00455562
-0.00450527
-0.00444914
-0.00439416
-0.00433178
-0.00427347
-0.00421064
-0.00415204
-0.00409093
-0.00402984
-0.00396699
-0.00390114
-0.00383538
-0.00376415
-0.00369566
-0.0036196
-0.00354804
-0.00346592
-0.00338684
-0.00330637
-0.00320806
-0.00312418
0.00751709
0.00566936
0.000580564
-0.00447521
-0.00692501
-0.00688387
-0.00598292
-0.00532276
-0.0050407
-0.00492458
-0.00486464
-0.00488536
-0.0049505
-0.00492582
-0.00481164
-0.00472754
-0.00469343
-0.00468034
-0.00468786
-0.0046708
-0.0046051
-0.00455376
-0.00454102
-0.00452676
-0.00450266
-0.00448536
-0.00447056
-0.00445396
-0.00444089
-0.00442696
-0.00441708
-0.00441609
-0.00442269
-0.00444285
-0.00447221
-0.00450864
-0.00455596
-0.00460437
-0.00465425
-0.0047005
-0.00473508
-0.00477575
-0.0048184
-0.00483535
-0.00483318
-0.00483449
-0.00483823
-0.00486355
-0.0049281
-0.00499315
-0.00503271
-0.00507746
-0.00512714
-0.0051567
-0.00516916
-0.00517588
-0.00519936
-0.00523126
-0.00523072
-0.00520451
-0.00520226
-0.00520431
-0.00518031
-0.00515172
-0.005135
-0.00511254
-0.00507607
-0.00504282
-0.00500979
-0.00497431
-0.00493319
-0.00489184
-0.00484887
-0.00480296
-0.00475762
-0.00470603
-0.00465553
-0.00460431
-0.00455553
-0.00450519
-0.00444907
-0.0043941
-0.00433173
-0.00427342
-0.00421059
-0.004152
-0.0040909
-0.00402981
-0.00396696
-0.00390112
-0.00383536
-0.00376414
-0.00369565
-0.0036196
-0.00354804
-0.00346593
-0.00338684
-0.0033064
-0.00320811
-0.00312412
0.00695415
0.00540678
0.000770953
-0.0041068
-0.00664955
-0.00676726
-0.00594014
-0.00528747
-0.00499907
-0.00488558
-0.00483439
-0.0048607
-0.00492624
-0.00490264
-0.00479317
-0.00471436
-0.00468311
-0.00466995
-0.00467616
-0.00465946
-0.00459627
-0.00454699
-0.00453467
-0.00452039
-0.00449686
-0.00448057
-0.00446674
-0.00445079
-0.00443818
-0.00442476
-0.00441533
-0.00441454
-0.00442116
-0.00444134
-0.00447078
-0.00450716
-0.00455419
-0.00460226
-0.00465203
-0.0046985
-0.00473334
-0.00477391
-0.00481636
-0.00483352
-0.0048319
-0.0048336
-0.00483723
-0.00486199
-0.00492608
-0.00499129