/*--------------------------------*- C++ -*----------------------------------*\
| =========                 |                                                 |
| \\      /  F ield         | OpenFOAM: The Open Source CFD Toolbox           |
|  \\    /   O peration     | Version:  3.0.1                                 |
|   \\  /    A nd           | Web:      www.OpenFOAM.org                      |
|    \\/     M anipulation  |                                                 |
\*---------------------------------------------------------------------------*/
FoamFile
{
    version     2.0;
    format      ascii;
    class       surfaceScalarField;
    location    "0.6";
    object      phi;
}
// * * * * * * * * * * * * * * * * * * * * * * * * * * * * * * * * * * * * * //

dimensions      [0 3 -1 0 0 0 0];

internalField   nonuniform List<scalar> 
19000
(
1.18009e-06
-2.49261e-07
1.19504e-06
3.62091e-07
1.1746e-06
4.76022e-07
1.11822e-06
-6.37803e-07
1.17897e-06
1.54302e-07
1.16094e-06
1.91435e-07
1.15102e-06
-7.57929e-08
1.16294e-06
3.87031e-07
1.15232e-06
-4.77435e-08
1.13976e-06
2.31552e-09
1.14866e-06
-3.65306e-07
1.15626e-06
8.90022e-08
1.17114e-06
-1.43651e-07
1.16567e-06
7.11224e-08
1.17103e-06
-1.27617e-07
1.1587e-06
-1.15386e-08
1.16247e-06
-6.11615e-08
1.15194e-06
5.71311e-09
1.15067e-06
7.09475e-08
6.89671e-08
1.12501e-06
1.23649e-06
-2.61492e-07
1.25373e-06
3.4485e-07
1.23032e-06
4.99435e-07
1.1735e-06
-5.80984e-07
1.23215e-06
9.5653e-08
1.22004e-06
2.03544e-07
1.20636e-06
-6.21151e-08
1.2242e-06
3.69198e-07
1.21053e-06
-3.40711e-08
1.2022e-06
1.06405e-08
1.20684e-06
-3.69947e-07
1.22003e-06
7.58108e-08
1.22799e-06
-1.51609e-07
1.23277e-06
6.63486e-08
1.22711e-06
-1.21961e-07
1.22783e-06
-1.22583e-08
1.21373e-06
-4.70575e-08
1.2228e-06
-3.36009e-09
1.19555e-06
9.8194e-08
5.64803e-08
1.20804e-06
1.29398e-06
-2.72692e-07
1.31432e-06
3.24515e-07
1.28899e-06
5.24766e-07
1.23652e-06
-5.28518e-07
1.28626e-06
4.59153e-08
1.28544e-06
2.04357e-07
1.2643e-06
-4.09699e-08
1.286e-06
3.47496e-07
1.26992e-06
-1.79956e-08
1.26762e-06
1.29468e-08
1.26411e-06
-3.66443e-07
1.28211e-06
5.78129e-08
1.2828e-06
-1.52297e-07
1.29458e-06
5.4564e-08
1.28247e-06
-1.09844e-07
1.28721e-06
-1.69972e-08
1.2705e-06
-3.03549e-08
1.27615e-06
-9.00408e-09
1.26104e-06
1.133e-07
6.38111e-08
1.25371e-06
1.35262e-06
-2.81211e-07
1.37456e-06
3.02578e-07
1.34996e-06
5.49371e-07
1.30647e-06
-4.85029e-07
1.3437e-06
8.67705e-09
1.35297e-06
1.95093e-07
1.32634e-06
-1.4338e-08
1.34563e-06
3.28201e-07
1.33148e-06
-3.84169e-09
1.33165e-06
1.27774e-08
1.32325e-06
-3.58049e-07
1.33953e-06
4.1533e-08
1.33891e-06
-1.51673e-07
1.35033e-06
4.31455e-08
1.33998e-06
-9.94965e-08
1.34233e-06
-1.93432e-08
1.32975e-06
-1.778e-08
1.33013e-06
-9.38179e-09
1.32288e-06
1.20549e-07
7.56518e-08
1.31104e-06
1.4133e-06
-2.86157e-07
1.43409e-06
2.81786e-07
1.4132e-06
5.70262e-07
1.38093e-06
-4.52758e-07
1.40571e-06
-1.61021e-08
1.4199e-06
1.80905e-07
1.39322e-06
1.23413e-08
1.40588e-06
3.15539e-07
1.39632e-06
5.72106e-09
1.39657e-06
1.25208e-08
1.38685e-06
-3.48325e-07
1.3991e-06
2.928e-08
1.39888e-06
-1.51445e-07
1.40862e-06
3.34029e-08
1.40078e-06
-9.16603e-08
1.40209e-06
-2.06471e-08
1.3916e-06
-7.29807e-09
1.39008e-06
-7.86213e-09
1.38507e-06
1.25567e-07
8.72562e-08
1.37346e-06
1.47728e-06
-2.87764e-07
1.49433e-06
2.64742e-07
1.4792e-06
5.8539e-07
1.45775e-06
-4.31308e-07
1.47276e-06
-3.1112e-08
1.48659e-06
1.67072e-07
1.46442e-06
3.45141e-08
1.47045e-06
3.09503e-07
1.46487e-06
1.13026e-08
1.46513e-06
1.22616e-08
1.45564e-06
-3.38833e-07
1.46492e-06
1.9997e-08
1.46395e-06
-1.5047e-07
1.47247e-06
2.48839e-08
1.46558e-06
-8.47732e-08
1.46717e-06
-2.22342e-08
1.45783e-06
2.03877e-09
1.45545e-06
-5.47825e-09
1.45209e-06
1.28928e-07
9.85497e-08
1.44079e-06
1.54552e-06
-2.87069e-07
1.55754e-06
2.52728e-07
1.54849e-06
5.94433e-07
1.53582e-06
-4.18636e-07
1.54452e-06
-3.98098e-08
1.55508e-06
1.56513e-07
1.53877e-06
5.08168e-08
1.54085e-06
3.07431e-07
1.53726e-06
1.48938e-08
1.53803e-06
1.14864e-08
1.52907e-06
-3.29875e-07
1.53692e-06
1.21499e-08
1.53415e-06
-1.47699e-07
1.54146e-06
1.75713e-08
1.53439e-06
-7.77025e-08
1.53638e-06
-2.42281e-08
1.52838e-06
1.00412e-08
1.52545e-06
-2.54282e-09
1.52412e-06
1.30259e-07
1.09384e-07
1.51328e-06
1.61825e-06
-2.85193e-07
1.62564e-06
2.45343e-07
1.62155e-06
5.98519e-07
1.61504e-06
-4.12119e-07
1.62019e-06
-4.49645e-08
1.62705e-06
1.49654e-07
1.61563e-06
6.22388e-08
1.61655e-06
3.06511e-07
1.61353e-06
1.79117e-08
1.61491e-06
1.01043e-08
1.60629e-06
-3.2125e-07
1.61362e-06
4.82005e-09
1.60883e-06
-1.42916e-07
1.61485e-06
1.1554e-08
1.60709e-06
-6.99436e-08
1.60915e-06
-2.62896e-08
1.60267e-06
1.6522e-08
1.59931e-06
8.14903e-10
1.60017e-06
1.29398e-07
1.19472e-07
1.59009e-06
1.69517e-06
-2.82788e-07
1.69947e-06
2.41045e-07
1.69878e-06
5.99211e-07
1.69584e-06
-4.09184e-07
1.69904e-06
-4.81693e-08
1.70319e-06
1.45509e-07
1.69509e-06
7.03389e-08
1.69656e-06
3.05039e-07
1.69363e-06
2.08435e-08
1.69539e-06
8.34468e-09
1.68668e-06
-3.12543e-07
1.69383e-06
-2.32812e-09
1.68737e-06
-1.36452e-07
1.69225e-06
6.66867e-09
1.68381e-06
-6.15014e-08
1.68552e-06
-2.80027e-08
1.68052e-06
2.15304e-08
1.67664e-06
4.68932e-09
1.67942e-06
1.26615e-07
1.28587e-07
1.67031e-06
1.77591e-06
-2.79977e-07
1.77887e-06
2.38084e-07
1.78043e-06
5.97648e-07
1.77888e-06
-4.07633e-07
1.78074e-06
-5.00285e-08
1.7835e-06
1.42747e-07
1.77757e-06
7.62744e-08
1.78024e-06
3.02364e-07
1.77741e-06
2.36806e-08
1.77929e-06
6.46364e-09
1.77007e-06
-3.03323e-07
1.77703e-06
-9.29364e-09
1.76943e-06
-1.2885e-07
1.77354e-06
2.56502e-09
1.76477e-06
-5.27383e-08
1.7658e-06
-2.90335e-08
1.76207e-06
2.52638e-08
1.75746e-06
9.30074e-09
1.76152e-06
1.2255e-07
1.36571e-07
1.75354e-06
1.86038e-06
-2.76612e-07
1.8633e-06
2.35172e-07
1.86661e-06
5.94334e-07
1.86482e-06
-4.0584e-07
1.86537e-06
-5.05825e-08
1.86784e-06
1.40276e-07
1.86341e-06
8.07077e-08
1.86736e-06
2.98417e-07
1.86476e-06
2.62747e-08
1.86659e-06
4.63256e-09
1.85656e-06
-2.93289e-07
1.86321e-06
-1.59414e-08
1.85501e-06
-1.20652e-07
1.85868e-06
-1.10652e-09
1.8501e-06
-4.41562e-08
1.85026e-06
-2.9192e-08
1.84755e-06
2.79727e-08
1.84204e-06
1.48048e-08
1.84659e-06
1.18001e-07
1.43295e-07
1.83987e-06
1.94877e-06
-2.72542e-07
1.95229e-06
2.31651e-07
1.95722e-06
5.89401e-07
1.95421e-06
-4.02824e-07
1.95333e-06
-4.97085e-08
1.95619e-06
1.37423e-07
1.95289e-06
8.40022e-08
1.95794e-06
2.93371e-07
1.95573e-06
2.848e-08
1.95742e-06
2.94665e-09
1.94646e-06
-2.82336e-07
1.95264e-06
-2.21202e-08
1.9443e-06
-1.12307e-07
1.94775e-06
-4.56146e-09
1.9398e-06
-3.62019e-08
1.93903e-06
-2.84237e-08
1.9371e-06
2.99029e-08
1.93074e-06
2.11665e-08
1.93503e-06
1.13705e-07
1.48636e-07
1.92969e-06
2.04137e-06
-2.67723e-07
2.04569e-06
2.27328e-07
2.05218e-06
5.82917e-07
2.04754e-06
-3.98186e-07
2.0452e-06
-4.737e-08
2.0487e-06
1.33927e-07
2.04634e-06
8.63607e-08
2.05223e-06
2.87477e-07
2.05051e-06
3.02009e-08
2.05199e-06
1.46671e-09
2.0402e-06
-2.7054e-07
2.04579e-06
-2.77143e-08
2.03762e-06
-1.04137e-07
2.04091e-06
-7.8498e-09
2.03386e-06
-2.9155e-08
2.03221e-06
-2.67764e-08
2.03083e-06
3.12905e-08
2.02384e-06
2.8155e-08
2.02737e-06
1.10174e-07
1.52523e-07
2.02348e-06
2.13849e-06
-2.62216e-07
2.14358e-06
2.22243e-07
2.15147e-06
5.7503e-07
2.14522e-06
-3.91937e-07
2.14154e-06
-4.36938e-08
2.14564e-06
1.29828e-07
2.14412e-06
8.78847e-08
2.1506e-06
2.80995e-07
2.1494e-06
3.13997e-08
2.15061e-06
2.51168e-10
2.13817e-06
-2.58098e-07
2.14311e-06
-3.26511e-08
2.13532e-06
-9.6347e-08
2.13837e-06
-1.09009e-08
2.13232e-06
-2.31021e-08
2.12991e-06
-2.43719e-08
2.12883e-06
3.23764e-08
2.12156e-06
3.542e-08
2.12408e-06
1.07659e-07
1.54959e-07
2.12164e-06
2.2404e-06
-2.56128e-07
2.24612e-06
2.16529e-07
2.2552e-06
5.6595e-07
2.24757e-06
-3.84309e-07
2.24281e-06
-3.89361e-08
2.24729e-06
1.25344e-07
2.24656e-06
8.86144e-08
2.25339e-06
2.74174e-07
2.25271e-06
3.20762e-08
2.2536e-06
-6.37566e-10
2.24076e-06
-2.45258e-07
2.245e-06
-3.68907e-08
2.23769e-06
-8.90432e-08
2.2404e-06
-1.36061e-08
2.23526e-06
-1.79618e-08
2.23227e-06
-2.13865e-08
2.23124e-06
3.34136e-08
2.22406e-06
4.25921e-08
2.22553e-06
1.06188e-07
1.56041e-07
2.22445e-06
2.34733e-06
-2.49582e-07
2.35352e-06
2.10342e-07
2.36357e-06
5.55894e-07
2.35485e-06
-3.75589e-07
2.34933e-06
-3.3415e-08
2.35393e-06
1.20748e-07
2.35398e-06
8.85665e-08
2.36091e-06
2.6724e-07
2.36075e-06
3.22382e-08
2.36125e-06
-1.14439e-09
2.34826e-06
-2.32261e-07
2.35178e-06
-4.04189e-08
2.34499e-06
-8.22501e-08
2.34728e-06
-1.58899e-08
2.34286e-06
-1.35423e-08
2.33949e-06
-1.8018e-08
2.33826e-06
3.46431e-08
2.33149e-06
4.93632e-08
2.33203e-06
1.05644e-07
1.55953e-07
2.33212e-06
2.45951e-06
-2.42695e-07
2.46601e-06
2.03837e-07
2.47686e-06
5.4505e-07
2.4673e-06
-3.66036e-07
2.46135e-06
-2.74567e-08
2.46579e-06
1.16299e-07
2.46661e-06
8.77546e-08
2.47344e-06
2.60407e-07
2.47379e-06
3.18873e-08
2.47388e-06
-1.23449e-09
2.46092e-06
-2.19304e-07
2.46376e-06
-4.32553e-08
2.45743e-06
-7.5922e-08
2.45929e-06
-1.77505e-08
2.45534e-06
-9.59308e-09
2.45178e-06
-1.44494e-08
2.45023e-06
3.61858e-08
2.44398e-06
5.56126e-08
2.44381e-06
1.05817e-07
1.54936e-07
2.44483e-06
2.57717e-06
-2.35569e-07
2.58386e-06
1.97147e-07
2.59534e-06
5.33563e-07
2.58514e-06
-3.55828e-07
2.57904e-06
-2.13611e-08
2.58313e-06
1.12207e-07
2.5847e-06
8.61903e-08
2.59125e-06
2.5386e-07
2.59211e-06
3.10231e-08
2.59177e-06
-8.99952e-10
2.57899e-06
-2.06518e-07
2.5812e-06
-4.54707e-08
2.57523e-06
-6.99454e-08
2.57674e-06
-1.92633e-08
2.57301e-06
-5.86383e-09
2.56935e-06
-1.07909e-08
2.56753e-06
3.80043e-08
2.56175e-06
6.14e-08
2.56111e-06
1.06455e-07
1.53239e-07
2.56281e-06
2.70055e-06
-2.28288e-07
2.70732e-06
1.90376e-07
2.71935e-06
5.21533e-07
2.70859e-06
-3.45066e-07
2.70261e-06
-1.53832e-08
2.70618e-06
1.08634e-07
2.7085e-06
8.38739e-08
2.71461e-06
2.4775e-07
2.71598e-06
2.96566e-08
2.71524e-06
-1.64839e-10
2.70267e-06
-1.93952e-07
2.7044e-06
-4.71938e-08
2.69861e-06
-6.41591e-08
2.69989e-06
-2.05414e-08
2.69619e-06
-2.16161e-09
2.69244e-06
-7.04876e-09
2.69049e-06
3.99561e-08
2.68505e-06
6.68419e-08
2.68416e-06
1.07343e-07
1.51075e-07
2.68633e-06
2.8299e-06
-2.20916e-07
2.83667e-06
1.83599e-07
2.84919e-06
5.09014e-07
2.83791e-06
-3.33784e-07
2.83225e-06
-9.72473e-09
2.83518e-06
1.05701e-07
2.83826e-06
8.07951e-08
2.84384e-06
2.42177e-07
2.84567e-06
2.78259e-08
2.8446e-06
9.03882e-10
2.83221e-06
-1.81564e-07
2.83363e-06
-4.86091e-08
2.82784e-06
-5.83755e-08
2.82898e-06
-2.16777e-08
2.82525e-06
1.56735e-09
2.82129e-06
-3.09375e-09
2.81939e-06
4.18579e-08
2.81424e-06
7.19932e-08
2.81321e-06
1.0837e-07
1.48592e-07
2.8157e-06
2.96548e-06
-2.13502e-07
2.97221e-06
1.76871e-07
2.9852e-06
4.96021e-07
2.97339e-06
-3.21969e-07
2.9682e-06
-4.53875e-09
2.9704e-06
1.03502e-07
2.97425e-06
7.69409e-08
2.97924e-06
2.37187e-07
2.98146e-06
2.56073e-08
2.98018e-06
2.187e-09
2.96784e-06
-1.69228e-07
2.96916e-06
-4.99268e-08
2.96322e-06
-5.24357e-08
2.96423e-06
-2.26809e-08
2.96057e-06
5.2265e-09
2.95618e-06
1.29465e-09
2.95447e-06
4.35668e-08
2.94968e-06
7.67808e-08
2.94851e-06
1.09539e-07
1.45898e-07
2.95121e-06
3.10759e-06
-2.06084e-07
3.11422e-06
1.70242e-07
3.12771e-06
4.82533e-07
3.11532e-06
-3.09583e-07
3.11072e-06
6.11535e-11
3.11211e-06
1.02109e-07
3.11674e-06
7.23102e-08
3.12116e-06
2.32766e-07
3.12364e-06
2.3127e-08
3.12232e-06
3.50597e-09
3.10985e-06
-1.56757e-07
3.11128e-06
-5.1355e-08
3.10509e-06
-4.62436e-08
3.10587e-06
-2.34602e-08
3.10245e-06
8.64173e-09
3.09745e-06
6.2951e-09
3.09594e-06
4.50812e-08
3.09171e-06
8.10099e-08
3.09036e-06
1.10893e-07
1.43099e-07
3.09316e-06
3.25652e-06
-1.98694e-07
3.263e-06
1.63761e-07
3.27703e-06
4.68509e-07
3.26402e-06
-2.96575e-07
3.26009e-06
3.98839e-09
3.26063e-06
1.01571e-07
3.26601e-06
6.69325e-08
3.26993e-06
2.28838e-07
3.2725e-06
2.05654e-08
3.27137e-06
4.63223e-09
3.25855e-06
-1.43941e-07
3.26024e-06
-5.30404e-08
3.25381e-06
-3.98162e-08
3.25416e-06
-2.38104e-08
3.2512e-06
1.16064e-08
3.24553e-06
1.19604e-08
3.24405e-06
4.6566e-08
3.24061e-06
8.44501e-08
3.23909e-06
1.12412e-07
1.40347e-07
3.24184e-06
3.4126e-06
-1.91365e-07
3.41888e-06
1.57481e-07
3.4335e-06
4.53894e-07
3.41981e-06
-2.82889e-07
3.41662e-06
7.17614e-09
3.41628e-06
1.0191e-07
3.42234e-06
6.08772e-08
3.42591e-06
2.25265e-07
3.42832e-06
1.81551e-08
3.42765e-06
5.30547e-09
3.4143e-06
-1.30593e-07
3.41629e-06
-5.50252e-08
3.40977e-06
-3.32984e-08
3.4094e-06
-2.3439e-08
3.40704e-06
1.3965e-08
3.40085e-06
1.81538e-08
3.3991e-06
4.83106e-08
3.39662e-06
8.69291e-08
3.39508e-06
1.13959e-07
1.37823e-07
3.3976e-06
3.57618e-06
-1.84129e-07
3.58219e-06
1.51463e-07
3.59746e-06
4.38627e-07
3.58305e-06
-2.68474e-07
3.58065e-06
9.57274e-09
3.57944e-06
1.03123e-07
3.58605e-06
5.42618e-08
3.58946e-06
2.2185e-07
3.59145e-06
1.61707e-08
3.59149e-06
5.26819e-09
3.5775e-06
-1.16608e-07
3.57968e-06
-5.71988e-08
3.57335e-06
-2.69745e-08
3.5719e-06
-2.19923e-08
3.57022e-06
1.56449e-08
3.56379e-06
2.45919e-08
3.5615e-06
5.05948e-08
3.55999e-06
8.84416e-08
3.55868e-06
1.15264e-07
1.35679e-07
3.56083e-06
3.7476e-06
-1.77022e-07
3.75329e-06
1.45773e-07
3.76927e-06
4.22643e-07
3.75408e-06
-2.53283e-07
3.75251e-06
1.11449e-08
3.75046e-06
1.05171e-07
3.75746e-06
4.72599e-08
3.76097e-06
2.18337e-07
3.76223e-06
1.4915e-08
3.76319e-06
4.30937e-09
3.74859e-06
-1.0201e-07
3.75068e-06
-5.92841e-08
3.74492e-06
-2.12138e-08
3.74208e-06
-1.91533e-08
3.741e-06
1.67182e-08
3.73469e-06
3.09041e-08
3.73173e-06
5.35576e-08
3.73099e-06
8.91839e-08
3.73024e-06
1.1601e-07
1.33941e-07
3.73198e-06
3.92725e-06
-1.7008e-07
3.93254e-06
1.40483e-07
3.94929e-06
4.05886e-07
3.9333e-06
-2.37289e-07
3.93255e-06
1.18912e-08
3.92976e-06
1.07966e-07
3.93691e-06
4.01044e-08
3.94083e-06
2.14425e-07
3.94106e-06
1.46783e-08
3.94306e-06
2.31458e-09
3.92803e-06
-8.69829e-08
3.9296e-06
-6.08532e-08
3.92478e-06
-1.63952e-08
3.92042e-06
-1.47904e-08
3.91966e-06
1.74782e-08
3.91386e-06
3.66996e-08
3.91028e-06
5.71454e-08
3.90996e-06
8.94968e-08
3.91002e-06
1.15957e-07
1.32455e-07
3.9115e-06
4.11551e-06
-1.63342e-07
4.12033e-06
1.35662e-07
4.13791e-06
3.88308e-07
4.12112e-06
-2.20495e-07
4.12115e-06
1.18527e-08
4.11776e-06
1.11359e-07
4.12477e-06
3.30977e-08
4.12941e-06
2.09778e-07
4.12839e-06
1.57026e-08
4.1314e-06
-6.94471e-10
4.11627e-06
-7.18538e-08
4.11683e-06
-6.14168e-08
4.11323e-06
-1.27867e-08
4.10745e-06
-9.01969e-09
4.10659e-06
1.83394e-08
4.10162e-06
4.16743e-08
4.09762e-06
6.11434e-08
4.09738e-06
8.97407e-08
4.09827e-06
1.15064e-07
1.30914e-07
4.09981e-06
4.31281e-06
-1.56845e-07
4.31709e-06
1.31382e-07
4.33551e-06
3.69888e-07
4.31796e-06
-2.02952e-07
4.31869e-06
1.11297e-08
4.31491e-06
1.15139e-07
4.32142e-06
2.65892e-08
4.32711e-06
2.0408e-07
4.32469e-06
1.81221e-08
4.32853e-06
-4.53546e-09
4.31375e-06
-5.7064e-08
4.31283e-06
-6.04977e-08
4.3105e-06
-1.04587e-08
4.30367e-06
-2.19641e-09
4.30227e-06
1.97446e-08
4.29831e-06
4.56301e-08
4.29419e-06
6.52704e-08
4.29376e-06
9.01695e-08
4.29531e-06
1.13514e-07
1.28986e-07
4.29724e-06
4.51956e-06
-1.50627e-07
4.52323e-06
1.27703e-07
4.54249e-06
3.50634e-07
4.52431e-06
-1.84777e-07
4.52555e-06
9.89538e-09
4.52166e-06
1.1903e-07
4.52729e-06
2.096e-08
4.53429e-06
1.97073e-07
4.53049e-06
2.19273e-08
4.53482e-06
-8.86902e-09
4.52085e-06
-4.30957e-08
4.51812e-06
-5.7762e-08
4.51691e-06
-9.25113e-09
4.50952e-06
5.18822e-09
4.50725e-06
2.20236e-08
4.50433e-06
4.85403e-08
4.50037e-06
6.92349e-08
4.49966e-06
9.08779e-08
4.50154e-06
1.11633e-07
1.26459e-07
4.50407e-06
4.73621e-06
-1.4472e-07
4.73924e-06
1.24674e-07
4.75927e-06
3.30598e-07
4.74066e-06
-1.66166e-07
4.74215e-06
8.40465e-09
4.73848e-06
1.22701e-07
4.74285e-06
1.65904e-08
4.75129e-06
1.88633e-07
4.74632e-06
2.69024e-08
4.75066e-06
-1.32156e-08
4.73794e-06
-3.03742e-08
4.73328e-06
-5.30981e-08
4.73287e-06
-8.84071e-09
4.72541e-06
1.26496e-08
4.72211e-06
2.53184e-08
4.72011e-06
5.05446e-08
4.71659e-06
7.27545e-08
4.71559e-06
9.18737e-08
4.71752e-06
1.09705e-07
1.23373e-07
4.72061e-06
4.96323e-06
-1.39152e-07
4.96559e-06
1.22314e-07
4.9863e-06
3.09889e-07
4.96755e-06
-1.47416e-07
4.96895e-06
6.99861e-09
4.96587e-06
1.25784e-07
4.96866e-06
1.38053e-08
4.97848e-06
1.7881e-07
4.97271e-06
3.26719e-08
4.97656e-06
-1.70646e-08
4.96534e-06
-1.91529e-08
4.95889e-06
-4.66479e-08
4.95883e-06
-8.78356e-09
4.95174e-06
1.9744e-08
4.94744e-06
2.96192e-08
4.94611e-06
5.18707e-08
4.94327e-06
7.5594e-08
4.94205e-06
9.3095e-08
4.94385e-06
1.07907e-07
1.19965e-07
4.94725e-06
5.2011e-06
-1.3394e-07
5.2028e-06
1.20614e-07
5.22401e-06
2.88685e-07
5.20552e-06
-1.28929e-07
5.20642e-06
6.10073e-09
5.2043e-06
1.27903e-07
5.20529e-06
1.28141e-08
5.21622e-06
1.67884e-07
5.2102e-06
3.86907e-08
5.21307e-06
-1.99328e-08
5.20339e-06
-9.47478e-09
5.19547e-06
-3.87304e-08
5.19534e-06
-8.64834e-09
5.18893e-06
2.61475e-08
5.18376e-06
3.47915e-08
5.18284e-06
5.27873e-08
5.18088e-06
7.75585e-08
5.17952e-06
9.4457e-08
5.1811e-06
1.0632e-07
1.16516e-07
5.18455e-06
5.45034e-06
-1.29089e-07
5.45142e-06
1.19528e-07
5.47287e-06
2.67239e-07
5.45516e-06
-1.11224e-07
5.45506e-06
6.20074e-09
5.45426e-06
1.28706e-07
5.4534e-06
1.36715e-08
5.46495e-06
1.56334e-07
5.45925e-06
4.43902e-08
5.46083e-06
-2.15131e-08
5.45256e-06
-1.20128e-09
5.44351e-06
-2.96794e-08
5.44299e-06
-8.13278e-09
5.43752e-06
3.16232e-08
5.43166e-06
4.06503e-08
5.43082e-06
5.36285e-08
5.42989e-06
7.84865e-08
5.42853e-06
9.58144e-08
5.42983e-06
1.0502e-07
1.13199e-07
5.43315e-06
5.71146e-06
-1.2459e-07
5.71202e-06
1.18971e-07
5.73337e-06
2.45887e-07
5.71705e-06
-9.49027e-08
5.71545e-06
7.80211e-09
5.71621e-06
1.27938e-07
5.71365e-06
1.62337e-08
5.72521e-06
1.4478e-07
5.72029e-06
4.93045e-08
5.7205e-06
-2.17228e-08
5.71336e-06
5.93963e-09
5.70352e-06
-1.98383e-08
5.70247e-06
-7.0805e-09
5.69805e-06
3.60367e-08
5.69174e-06
4.69679e-08
5.69061e-06
5.47551e-08
5.69076e-06
7.83309e-08
5.68966e-06
9.69233e-08
5.6906e-06
1.04077e-07
1.10098e-07
5.6937e-06
5.98502e-06
-1.20418e-07
5.98518e-06
1.18809e-07
6.00602e-06
2.25051e-07
5.99171e-06
-8.0597e-08
5.98818e-06
1.13309e-08
5.99056e-06
1.25558e-07
5.98676e-06
2.00346e-08
5.99759e-06
1.33955e-07
5.99369e-06
5.31992e-08
5.99275e-06
-2.07745e-08
5.98637e-06
1.23196e-08
5.97607e-06
-9.53914e-09
5.97443e-06
-5.44497e-09
5.97112e-06
3.93477e-08
5.96462e-06
5.34712e-08
5.96286e-06
5.65076e-08
5.96396e-06
7.72354e-08
5.96345e-06
9.74317e-08
5.96401e-06
1.03522e-07
1.07281e-07
5.96682e-06
6.2716e-06
-1.16529e-07
6.27153e-06
1.18878e-07
6.29137e-06
2.05211e-07
6.27965e-06
-6.88724e-08
6.27399e-06
1.69911e-08
6.27773e-06
1.2181e-07
6.27344e-06
2.4329e-08
6.28283e-06
1.24567e-07
6.27989e-06
5.614e-08
6.27817e-06
-1.90551e-08
6.27231e-06
1.81806e-08
6.26165e-06
1.11603e-09
6.25948e-06
-3.26895e-09
6.25731e-06
4.15178e-08
6.25092e-06
5.98523e-08
6.24832e-06
5.91114e-08
6.24999e-06
7.55613e-08
6.25043e-06
9.70004e-08
6.25073e-06
1.03219e-07
1.04839e-07
6.25317e-06
6.5718e-06
-1.12861e-07
6.57169e-06
1.18987e-07
6.59004e-06
1.8686e-07
6.58129e-06
-6.01204e-08
6.57368e-06
2.4604e-08
6.57822e-06
1.17264e-07
6.57424e-06
2.83133e-08
6.58171e-06
1.17094e-07
6.57939e-06
5.84634e-08
6.5773e-06
-1.6969e-08
6.57192e-06
2.35642e-08
6.561e-06
1.20381e-08
6.55809e-06
-3.66288e-10
6.55718e-06
4.24333e-08
6.55128e-06
6.57501e-08
6.54774e-06
6.26521e-08
6.54953e-06
7.37734e-08
6.55106e-06
9.54679e-08
6.5514e-06
1.02876e-07
1.02809e-07
6.55343e-06
6.88626e-06
-1.09334e-07
6.88631e-06
1.18942e-07
6.90276e-06
1.70408e-07
6.89712e-06
-5.44828e-08
6.88813e-06
3.36008e-08
6.89251e-06
1.12878e-07
6.88959e-06
3.12401e-08
6.89514e-06
1.11544e-07
6.8928e-06
6.0798e-08
6.89071e-06
-1.48743e-08
6.88603e-06
2.82364e-08
6.87485e-06
2.32186e-08
6.87098e-06
3.50811e-09
6.87125e-06
4.21679e-08
6.8663e-06
7.06958e-08
6.8619e-06
6.70496e-08
6.86333e-06
7.23461e-08
6.86588e-06
9.29136e-08
6.86662e-06
1.0214e-07
1.01104e-07
6.86833e-06
7.21565e-06
-1.05852e-07
7.21605e-06
1.1855e-07
7.23029e-06
1.5616e-07
7.22765e-06
-5.18363e-08
7.2182e-06
4.30449e-08
7.22135e-06
1.0973e-07
7.21991e-06
3.26855e-08
7.22399e-06
1.07464e-07
7.22091e-06
6.38687e-08
7.21894e-06
-1.29016e-08
7.21538e-06
3.17953e-08
7.20409e-06
3.45076e-08
7.19892e-06
8.68269e-09
7.20008e-06
4.10093e-08
7.19654e-06
7.42382e-08
7.19158e-06
7.20036e-08
7.19223e-06
7.16989e-08
7.19553e-06
8.96134e-08
7.19693e-06
1.00734e-07
9.95331e-08
7.19851e-06
7.56068e-06
-1.02304e-07
7.56163e-06
1.17599e-07
7.57346e-06
1.44325e-07
7.57343e-06
-5.18051e-08
7.56467e-06
5.18074e-08
7.56563e-06
1.08768e-07
7.5657e-06
3.26224e-08
7.56906e-06
1.041e-07
7.56477e-06
6.81593e-08
7.5625e-06
-1.06337e-08
7.56051e-06
3.37875e-08
7.54957e-06
4.54462e-08
7.54282e-06
1.54316e-08
7.54435e-06
3.94837e-08
7.54254e-06
7.6041e-08
7.5375e-06
7.70504e-08
7.53709e-06
7.21044e-08
7.54075e-06
8.59525e-08
7.54296e-06
9.85292e-08
9.7911e-08
7.54458e-06
7.92207e-06
-9.85674e-08
7.92386e-06
1.15818e-07
7.93315e-06
1.35035e-07
7.93514e-06
-5.37982e-08
7.92816e-06
5.87881e-08
7.92636e-06
1.10561e-07
7.92756e-06
3.14242e-08
7.93104e-06
1.00623e-07
7.92533e-06
7.38664e-08
7.9221e-06
-7.40616e-09
7.92187e-06
3.40243e-08
7.91198e-06
5.53359e-08
7.90369e-06
2.37205e-08
7.90487e-06
3.83046e-08
7.90486e-06
7.60447e-08
7.90034e-06
8.15732e-08
7.89882e-06
7.36243e-08
7.90239e-06
8.23892e-08
7.90541e-06
9.55071e-08
9.61292e-08
7.90719e-06
8.30063e-06
-9.45126e-08
8.30353e-06
1.12915e-07
8.31026e-06
1.283e-07
8.31348e-06
-5.70135e-08
8.30921e-06
6.30563e-08
8.30463e-06
1.15139e-07
8.30607e-06
2.99829e-08
8.31052e-06
9.61795e-08
8.30364e-06
8.0747e-08
8.29863e-06
-2.39411e-09
8.29998e-06
3.26711e-08
8.29192e-06
6.33934e-08
8.2825e-06
3.31447e-08
8.28262e-06
3.81829e-08
8.28414e-06
7.45207e-08
8.28073e-06
8.4988e-08
8.27832e-06
7.60292e-08
8.28129e-06
7.94203e-08
8.28505e-06
9.17462e-08
9.40912e-08
8.28709e-06
8.69716e-06
-9.00108e-08
8.70149e-06
1.08584e-07
8.70573e-06
1.2406e-07
8.70926e-06
-6.05435e-08
8.70836e-06
6.39525e-08
8.7016e-06
1.21908e-07
8.70198e-06
2.96031e-08
8.70799e-06
9.0169e-08
8.70076e-06
8.79771e-08
8.69324e-06
5.11715e-09
8.69556e-06
3.03564e-08
8.68994e-06
6.90105e-08
8.68005e-06
4.30322e-08
8.67869e-06
3.95461e-08
8.68117e-06
7.20417e-08
8.67926e-06
8.68992e-08
8.67646e-06
7.88244e-08
8.67843e-06
7.74525e-08
8.6827e-06
8.74754e-08
9.16564e-08
8.68514e-06
9.11256e-06
-8.4952e-08
9.11855e-06
1.02599e-07
9.12051e-06
1.22099e-07
9.12337e-06
-6.34061e-08
9.12616e-06
6.11626e-08
9.1183e-06
1.29768e-07
9.11638e-06
3.15222e-08
9.12394e-06
8.2606e-08
9.11743e-06
9.44864e-08
9.10745e-06
1.51022e-08
9.10953e-06
2.82766e-08
9.10661e-06
7.19249e-08
9.09708e-06
5.25669e-08
9.09419e-06
4.24356e-08
9.0969e-06
6.93315e-08
9.09658e-06
8.72155e-08
9.094e-06
8.14041e-08
9.09486e-06
7.66009e-08
9.09919e-06
8.31437e-08
8.86264e-08
9.10222e-06
9.54776e-06
-7.92552e-08
9.5555e-06
9.48617e-08
9.55557e-06
1.22028e-07
9.55684e-06
-6.46763e-08
9.56319e-06
5.48183e-08
9.55569e-06
1.37264e-07
9.55054e-06
3.66695e-08
9.55904e-06
7.41101e-08
9.55436e-06
9.91659e-08
9.54249e-06
2.69701e-08
9.54304e-06
2.77317e-08
9.54263e-06
7.23325e-08
9.53428e-06
6.0912e-08
9.53009e-06
4.66331e-08
9.53245e-06
6.69659e-08
9.53347e-06
8.61953e-08
9.53163e-06
8.3242e-08
9.53164e-06
7.65942e-08
9.53545e-06
7.93304e-08
8.48991e-08
9.53918e-06
1.00038e-05
-7.28878e-08
1.00132e-05
8.54528e-08
1.00119e-05
1.23275e-07
1.00108e-05
-6.35582e-08
1.00202e-05
4.54003e-08
1.00146e-05
1.42885e-07
1.00059e-05
4.53382e-08
1.00142e-05
6.58267e-08
1.00121e-05
1.01302e-07
9.99932e-06
3.97412e-08
9.99763e-06
2.94126e-08
9.99893e-06
7.10367e-08
9.99234e-06
6.75068e-08
9.98732e-06
5.16523e-08
9.98898e-06
6.52983e-08
9.99089e-06
8.4286e-08
9.99004e-06
8.40915e-08
9.98972e-06
7.69193e-08
9.99267e-06
7.63761e-08
8.07087e-08
9.99686e-06
1.04816e-05
-6.58835e-08
1.04924e-05
7.46649e-08
1.04906e-05
1.25074e-07
1.04865e-05
-5.94482e-08
1.04982e-05
3.36859e-08
1.04956e-05
1.45495e-07
1.0484e-05
5.69384e-08
1.04906e-05
5.92006e-08
1.04913e-05
1.00635e-07
1.04788e-05
5.22286e-08
1.04747e-05
3.35235e-08
1.04767e-05
6.90931e-08
1.0472e-05
7.21649e-08
1.04668e-05
5.68612e-08
1.04676e-05
6.45306e-08
1.047e-05
8.18535e-08
1.04701e-05
8.39837e-08
1.04699e-05
7.71102e-08
1.04721e-05
7.41833e-08
7.65846e-08
1.04762e-05
1.09825e-05
-5.83442e-08
1.09942e-05
6.29458e-08
1.09927e-05
1.26616e-07
1.09853e-05
-5.20982e-08
1.09982e-05
2.07649e-08
1.09994e-05
1.44364e-07
1.09859e-05
7.03603e-08
1.09897e-05
5.54261e-08
1.09929e-05
9.74415e-08
1.09818e-05
6.33335e-08
1.09755e-05
3.98051e-08
1.09772e-05
6.74441e-08
1.09743e-05
7.50771e-08
1.09694e-05
6.17056e-08
1.09693e-05
6.46495e-08
1.09719e-05
7.92467e-08
1.09728e-05
8.3042e-08
1.0973e-05
7.69181e-08
1.09748e-05
7.24559e-08
7.28546e-08
1.09785e-05
1.15075e-05
-5.04311e-08
1.15196e-05
5.08414e-08
1.1519e-05
1.27147e-07
1.15086e-05
-4.16674e-08
1.15214e-05
7.93028e-09
1.15265e-05
1.39273e-07
1.15127e-05
8.42195e-08
1.15131e-05
5.50201e-08
1.15179e-05
9.2636e-08
1.15089e-05
7.23376e-08
1.15013e-05
4.74206e-08
1.15018e-05
6.68619e-08
1.15003e-05
7.66114e-08
1.14961e-05
6.59194e-08
1.14954e-05
6.5384e-08
1.14978e-05
7.68305e-08
1.14994e-05
8.13947e-08
1.15e-05
7.62995e-08
1.15016e-05
7.08835e-08
6.96209e-08
1.15048e-05
1.20578e-05
-4.23635e-08
1.20696e-05
3.89846e-08
1.20707e-05
1.2601e-07
1.20578e-05
-2.86916e-08
1.20691e-05
-3.36991e-09
1.20779e-05
1.30441e-07
1.20652e-05
9.69496e-08
1.20622e-05
5.79648e-08
1.20674e-05
8.74819e-08
1.2061e-05
7.87637e-08
1.20528e-05
5.56179e-08
1.20521e-05
6.74891e-08
1.20514e-05
7.73937e-08
1.2048e-05
6.93128e-08
1.20468e-05
6.64932e-08
1.20489e-05
7.4792e-08
1.2051e-05
7.92968e-08
1.20521e-05
7.52173e-08
1.20536e-05
6.93253e-08
6.67232e-08
1.20565e-05
1.26346e-05
-3.43908e-08
1.26456e-05
2.80046e-08
1.26489e-05
1.22742e-07
1.26342e-05
-1.39754e-08
1.26426e-05
-1.17853e-08
1.26546e-05
1.18429e-07
1.26444e-05
1.07132e-07
1.26385e-05
6.38633e-08
1.26429e-05
8.30379e-08
1.26391e-05
8.26413e-08
1.26311e-05
6.35816e-08
1.26294e-05
6.92335e-08
1.26289e-05
7.78907e-08
1.26263e-05
7.19155e-08
1.2625e-05
6.77983e-08
1.26266e-05
7.31454e-08
1.26288e-05
7.70472e-08
1.26304e-05
7.37135e-08
1.2632e-05
6.76664e-08
6.40044e-08
1.26347e-05
1.32393e-05
-2.67646e-08
1.32489e-05
1.84417e-08
1.32544e-05
1.17169e-07
1.32389e-05
1.52809e-09
1.32435e-05
-1.63772e-08
1.32579e-05
1.04106e-07
1.32511e-05
1.13869e-07
1.32432e-05
7.17332e-08
1.32462e-05
8.00875e-08
1.32443e-05
8.45014e-08
1.32373e-05
7.0571e-08
1.32347e-05
7.19175e-08
1.32343e-05
7.83032e-08
1.32323e-05
7.39041e-08
1.3231e-05
6.90421e-08
1.32322e-05
7.19727e-08
1.32345e-05
7.47405e-08
1.32363e-05
7.1919e-08
1.32381e-05
6.58654e-08
6.13687e-08
1.32407e-05
1.38731e-05
-1.97086e-08
1.38809e-05
1.06962e-08
1.38885e-05
1.09489e-07
1.38734e-05
1.66745e-08
1.38738e-05
-1.6799e-08
1.38891e-05
8.88237e-08
1.38862e-05
1.16751e-07
1.38776e-05
8.03089e-08
1.38786e-05
7.90993e-08
1.38782e-05
8.49221e-08
1.38726e-05
7.61998e-08
1.38694e-05
7.50966e-08
1.38689e-05
7.87984e-08
1.38675e-05
7.53251e-08
1.38663e-05
7.01694e-08
1.38672e-05
7.11416e-08
1.38693e-05
7.26054e-08
1.38714e-05
6.98108e-08
1.38734e-05
6.39221e-08
5.88393e-08
1.38759e-05
1.45374e-05
-1.3402e-08
1.4543e-05
5.01012e-09
1.45524e-05
1.00169e-07
1.45386e-05
3.04196e-08
1.45352e-05
-1.33429e-08
1.45499e-05
7.4079e-08
1.45508e-05
1.15816e-07
1.45427e-05
8.84219e-08
1.45419e-05
7.99196e-08
1.45422e-05
8.46626e-08
1.4538e-05
8.0353e-08
1.45348e-05
7.83111e-08
1.45342e-05
7.94449e-08
1.45333e-05
7.61749e-08
1.45324e-05
7.10972e-08
1.4533e-05
7.05079e-08
1.45348e-05
7.07927e-08
1.4537e-05
6.76036e-08
1.45392e-05
6.17481e-08
5.64479e-08
1.45416e-05
1.52334e-05
-7.95977e-09
1.5237e-05
1.46315e-09
1.52473e-05
8.98447e-08
1.52358e-05
4.18968e-08
1.52292e-05
-6.75349e-09
1.52421e-05
6.12286e-08
1.52463e-05
1.1159e-07
1.52396e-05
9.51432e-08
1.52375e-05
8.20144e-08
1.52379e-05
8.42945e-08
1.52351e-05
8.3158e-08
1.52321e-05
8.12302e-08
1.52315e-05
8.00993e-08
1.52311e-05
7.65679e-08
1.52306e-05
7.15547e-08
1.52311e-05
7.0049e-08
1.52327e-05
6.91897e-08
1.52347e-05
6.56468e-08
1.5237e-05
5.94057e-08
5.41024e-08
1.52393e-05
1.59628e-05
-3.42207e-09
1.59643e-05
-8.88121e-11
1.5975e-05
7.92369e-08
1.59662e-05
5.06754e-08
1.59575e-05
1.90334e-09
1.59676e-05
5.11262e-08
1.59742e-05
1.05047e-07
1.59695e-05
9.98026e-08
1.59667e-05
8.48086e-08
1.5967e-05
8.40305e-08
1.59653e-05
8.48532e-08
1.59628e-05
8.36916e-08
1.59622e-05
8.06676e-08
1.59623e-05
7.64861e-08
1.59625e-05
7.14047e-08
1.59631e-05
6.94196e-08
1.59645e-05
6.78436e-08
1.59661e-05
6.39547e-08
1.59683e-05
5.72757e-08
5.16856e-08
1.59707e-05
1.67269e-05
2.4357e-10
1.67268e-05
5.24607e-11
1.6737e-05
6.9016e-08
1.67309e-05
5.67424e-08
1.67215e-05
1.13987e-08
1.67284e-05
4.42196e-08
1.67361e-05
9.73096e-08
1.67339e-05
1.02046e-07
1.6731e-05
8.76946e-08
1.67311e-05
8.39248e-08
1.67303e-05
8.56142e-08
1.67284e-05
8.56078e-08
1.67279e-05
8.12048e-08
1.67285e-05
7.58643e-08
1.67292e-05
7.06955e-08
1.67303e-05
6.8303e-08
1.67316e-05
6.6534e-08
1.6733e-05
6.25734e-08
1.67347e-05
5.55762e-08
4.93872e-08
1.6737e-05
1.75275e-05
3.11775e-09
1.75261e-05
1.43179e-09
1.75353e-05
5.98131e-08
1.75317e-05
6.03303e-08
1.75224e-05
2.07516e-08
1.75262e-05
4.03898e-08
1.75342e-05
8.92982e-08
1.75342e-05
1.02091e-07
1.75318e-05
9.00979e-08
1.75317e-05
8.39423e-08
1.75318e-05
8.5544e-08
1.75305e-05
8.68863e-08
1.75299e-05
8.18075e-08
1.75309e-05
7.49197e-08
1.75322e-05
6.93518e-08
1.75338e-05
6.67126e-08
1.75354e-05
6.49004e-08
1.75366e-05
6.14316e-08
1.75378e-05
5.44115e-08
4.75162e-08
1.75396e-05
1.83662e-05
5.31038e-09
1.8364e-05
3.61868e-09
1.83718e-05
5.2017e-08
1.83702e-05
6.18576e-08
1.83617e-05
2.92779e-08
1.8363e-05
3.91005e-08
1.83705e-05
8.18335e-08
1.83722e-05
1.00391e-07
1.83707e-05
9.16046e-08
1.83707e-05
8.39227e-08
1.83715e-05
8.47189e-08
1.83709e-05
8.74479e-08
1.83703e-05
8.24817e-08
1.83711e-05
7.40675e-08
1.8373e-05
6.74239e-08
1.8375e-05
6.47599e-08
1.8377e-05
6.29044e-08
1.83783e-05
6.0081e-08
1.83789e-05
5.3825e-08
4.6107e-08
1.83803e-05
1.92448e-05
6.92108e-09
1.92421e-05
6.30712e-09
1.92484e-05
4.57137e-08
1.92484e-05
6.18466e-08
1.9241e-05
3.66886e-08
1.92406e-05
3.95206e-08
1.9247e-05
7.54188e-08
1.92499e-05
9.74561e-08
1.92493e-05
9.22162e-08
1.92496e-05
8.36678e-08
1.9251e-05
8.32708e-08