/*--------------------------------*- C++ -*----------------------------------*\
| =========                 |                                                 |
| \\      /  F ield         | OpenFOAM: The Open Source CFD Toolbox           |
|  \\    /   O peration     | Version:  3.0.1                                 |
|   \\  /    A nd           | Web:      www.OpenFOAM.org                      |
|    \\/     M anipulation  |                                                 |
\*---------------------------------------------------------------------------*/
FoamFile
{
    version     2.0;
    format      ascii;
    class       volVectorField;
    location    "0.6";
    object      U;
}
// * * * * * * * * * * * * * * * * * * * * * * * * * * * * * * * * * * * * * //

dimensions      [0 1 -1 0 0 0 0];

internalField   nonuniform List<vector> 
9600
(
(0.855373 -0.00242418 0)
(1.15235 0.00408952 0)
(0.903914 0.005508 0)
(1.09871 -0.00879369 0)
(0.82599 0.00278099 0)
(1.17948 0.00271678 0)
(0.820991 -0.00141852 0)
(1.13646 0.00716244 0)
(0.864141 -0.00109559 0)
(1.10146 -0.00014927 0)
(0.856363 -0.00845626 0)
(1.10302 0.00240752 0)
(0.881003 -0.0037124 0)
(1.11894 0.00205509 0)
(0.880305 -0.00414352 0)
(1.12016 -0.000708998 0)
(0.866082 -0.00239307 0)
(1.11956 -4.41675e-05 0)
(0.852065 0.00293522 0)
(1.11755 0.00312028 0)
(0.865556 -0.00256048 0)
(1.14288 0.00386896 0)
(0.915226 0.00577449 0)
(1.08745 -0.00788959 0)
(0.839091 0.00181747 0)
(1.16168 0.00306373 0)
(0.84381 -0.00116165 0)
(1.11575 0.00691072 0)
(0.892564 -0.000828058 0)
(1.07923 0.000178739 0)
(0.890377 -0.00865101 0)
(1.07561 0.00217547 0)
(0.9211 -0.00415595 0)
(1.0816 0.00215023 0)
(0.934787 -0.00419119 0)
(1.06771 -0.000244453 0)
(0.939523 -0.00216096 0)
(1.042 0.000136387 0)
(0.954705 0.00417229 0)
(1.00045 0.00219069 0)
(0.884999 -0.00269802 0)
(1.12261 0.00365885 0)
(0.934808 0.00610739 0)
(1.06924 -0.00714524 0)
(0.866209 0.000924951 0)
(1.12962 0.00319261 0)
(0.883798 -0.000886704 0)
(1.07941 0.00652851 0)
(0.930784 -0.000498062 0)
(1.04659 0.000286247 0)
(0.932078 -0.00866178 0)
(1.03682 0.0017173 0)
(0.962185 -0.00423211 0)
(1.03822 0.0018578 0)
(0.978766 -0.00374896 0)
(1.02248 -0.000578926 0)
(0.98204 -0.00146176 0)
(1.00093 -0.000355126 0)
(0.985575 0.00489422 0)
(0.983708 0.00286543 0)
(0.910611 -0.00279606 0)
(1.0945 0.00343699 0)
(0.95692 0.0064054 0)
(1.048 -0.00653571 0)
(0.90123 0.000312163 0)
(1.0917 0.0031027 0)
(0.927263 -0.00046671 0)
(1.04176 0.00613325 0)
(0.962662 -0.000195497 0)
(1.01869 0.000277379 0)
(0.962433 -0.00848792 0)
(1.00724 0.00124422 0)
(0.983681 -0.00421093 0)
(1.0112 0.00146588 0)
(0.994649 -0.00341845 0)
(1.00255 -0.00068547 0)
(0.991232 -0.000896694 0)
(0.990134 -0.000434097 0)
(0.986297 0.00535768 0)
(0.984381 0.00367076 0)
(0.937669 -0.00285751 0)
(1.06424 0.00319298 0)
(0.976287 0.00667296 0)
(1.02847 -0.00604744 0)
(0.935591 -9.69675e-05 0)
(1.05711 0.00289509 0)
(0.962076 4.57943e-06 0)
(1.01451 0.00582568 0)
(0.982058 3.41762e-05 0)
(1.00268 0.000267159 0)
(0.978712 -0.00826545 0)
(0.992876 0.000870336 0)
(0.990644 -0.00421581 0)
(0.999457 0.00113179 0)
(0.996772 -0.00313791 0)
(0.996181 -0.000719821 0)
(0.991179 -0.000470205 0)
(0.987528 -0.000385113 0)
(0.984648 0.00570517 0)
(0.983661 0.00423019 0)
(0.961613 -0.00288583 0)
(1.0376 0.00297563 0)
(0.989903 0.00688939 0)
(1.01396 -0.00570242 0)
(0.963034 -0.000361376 0)
(1.0317 0.00266027 0)
(0.983857 0.000422285 0)
(1.00048 0.00565827 0)
(0.991453 0.000176082 0)
(0.996578 0.000265637 0)
(0.986507 -0.00804602 0)
(0.989069 0.000603997 0)
(0.992631 -0.0042086 0)
(0.995418 0.000861206 0)
(0.995854 -0.00289613 0)
(0.99417 -0.000768774 0)
(0.990692 -7.79261e-05 0)
(0.987178 -0.000295715 0)
(0.984557 0.00589866 0)
(0.984074 0.00476406 0)
(0.979625 -0.00288742 0)
(1.01811 0.00281433 0)
(0.997562 0.0070342 0)
(1.00519 -0.00548878 0)
(0.981561 -0.00051747 0)
(1.01634 0.00246684 0)
(0.994746 0.000739112 0)
(0.995858 0.00559758 0)
(0.995754 0.000260374 0)
(0.995716 0.000256994 0)
(0.990716 -0.00783359 0)
(0.990065 0.000397381 0)
(0.994055 -0.00415451 0)
(0.994464 0.000625322 0)
(0.994957 -0.00266858 0)
(0.993327 -0.000836555 0)
(0.990611 0.000268134 0)
(0.987823 -0.0001773 0)
(0.985571 0.00598169 0)
(0.985782 0.00531496 0)
(0.991152 -0.00287338 0)
(1.00616 0.00271138 0)
(1.00097 0.00710964 0)
(1.00096 -0.00537262 0)
(0.992386 -0.000607482 0)
(1.00854 0.00233479 0)
(0.999108 0.000962394 0)
(0.995727 0.0055815 0)
(0.998241 0.000324994 0)
(0.996875 0.000233945 0)
(0.993518 -0.0076294 0)
(0.992428 0.000209062 0)
(0.995638 -0.00404381 0)
(0.994637 0.000424108 0)
(0.994465 -0.00242398 0)
(0.992812 -0.000914794 0)
(0.990668 0.000551646 0)
(0.988659 -4.66254e-05 0)
(0.98701 0.0059705 0)
(0.987824 0.00584759 0)
(0.997341 -0.0028526 0)
(0.999979 0.00265298 0)
(1.00221 0.00713437 0)
(0.999532 -0.00531832 0)
(0.997843 -0.000663607 0)
(1.00506 0.0022552 0)
(1.00046 0.00111952 0)
(0.996966 0.00556518 0)
(1.00017 0.000385668 0)
(0.998575 0.000198324 0)
(0.995582 -0.00742828 0)
(0.994637 2.52237e-05 0)
(0.997067 -0.00388092 0)
(0.995138 0.000260474 0)
(0.994333 -0.00215416 0)
(0.99253 -0.000984656 0)
(0.99078 0.000771118 0)
(0.989354 0.000101824 0)
(0.988324 0.00586833 0)
(0.989546 0.00633709 0)
(1 -0.00282775 0)
(0.997217 0.00261797 0)
(1.00272 0.00712815 0)
(0.999597 -0.00529397 0)
(0.999995 -0.000698393 0)
(1.00353 0.00220769 0)
(1.0007 0.00123337 0)
(0.998257 0.00552864 0)
(1.00176 0.000444667 0)
(1.00023 0.000157096 0)
(0.997095 -0.00721969 0)
(0.996202 -0.000154978 0)
(0.998067 -0.00367988 0)
(0.995638 0.000127511 0)
(0.994463 -0.00186647 0)
(0.992552 -0.00103401 0)
(0.990991 0.000929697 0)
(0.989909 0.000289805 0)
(0.989294 0.00569453 0)
(0.990706 0.00676895 0)
(1.00076 -0.00279775 0)
(0.996078 0.00258877 0)
(1.0031 0.00709966 0)
(1.0004 -0.00527446 0)
(1.00026 -0.000714681 0)
(1.00268 0.00217155 0)
(1.00058 0.00131822 0)
(0.999194 0.00546725 0)
(1.00299 0.000499445 0)
(1.0016 0.000116265 0)
(0.998144 -0.00699417 0)
(0.997103 -0.000329612 0)
(0.998587 -0.00345605 0)
(0.996016 1.49855e-05 0)
(0.994736 -0.00157743 0)
(0.99286 -0.00105493 0)
(0.991338 0.0010404 0)
(0.990402 0.00051701 0)
(0.989958 0.00548175 0)
(0.991356 0.00713315 0)
(1.00071 -0.00276077 0)
(0.995577 0.00255477 0)
(1.00344 0.00705111 0)
(1.00148 -0.0052432 0)
(0.999593 -0.000711663 0)
(1.00201 0.00213247 0)
(1.00034 0.00138185 0)
(0.999727 0.00538323 0)
(1.00385 0.000547674 0)
(1.00261 7.76941e-05 0)
(0.998821 -0.00674644 0)
(0.997503 -0.000494048 0)
(0.998729 -0.00322369 0)
(0.996253 -8.90078e-05 0)
(0.995051 -0.00130523 0)
(0.993343 -0.00103927 0)
(0.991795 0.00111847 0)
(0.990878 0.000779765 0)
(0.990444 0.00527002 0)
(0.991681 0.00742385 0)
(1.00042 -0.002716 0)
(0.995308 0.00251191 0)
(1.00374 0.00698319 0)
(1.00256 -0.00519249 0)
(0.99861 -0.000687777 0)
(1.00137 0.00208372 0)
(1.00008 0.0014287 0)
(0.999947 0.00528129 0)
(1.0044 0.000586934 0)
(1.00328 4.24171e-05 0)
(0.999228 -0.00647705 0)
(0.997605 -0.000644743 0)
(0.998655 -0.00299451 0)
(0.996382 -0.000191197 0)
(0.995339 -0.00106197 0)
(0.99387 -0.000989266 0)
(0.992295 0.00117363 0)
(0.991341 0.00107027 0)
(0.99086 0.00509391 0)
(0.991871 0.00763828 0)
(1.00013 -0.0026638 0)
(0.99514 0.00246006 0)
(1.00396 0.00689713 0)
(1.00345 -0.00512078 0)
(0.9977 -0.000643927 0)
(1.00079 0.00202436 0)
(0.999852 0.00146111 0)
(0.999987 0.00516654 0)
(1.00471 0.000616073 0)
(1.00368 1.27136e-05 0)
(0.999459 -0.0061912 0)
(0.997581 -0.000778905 0)
(0.9985 -0.00277505 0)
(0.99645 -0.000287704 0)
(0.995567 -0.000850961 0)
(0.994349 -0.000913748 0)
(0.992773 0.00121391 0)
(0.991779 0.00137049 0)
(0.991262 0.00497126 0)
(0.992052 0.00777824 0)
(0.999917 -0.00260517 0)
(0.995038 0.00240049 0)
(1.0041 0.00679531 0)
(1.0041 -0.00503008 0)
(0.997035 -0.000583048 0)
(1.00029 0.00195707 0)
(0.999681 0.00147998 0)
(0.999953 0.00504356 0)
(1.00488 0.000634881 0)
(1.00388 -1.03135e-05 0)
(0.999586 -0.00589407 0)
(0.997534 -0.000895649 0)
(0.998349 -0.00256815 0)
(0.996492 -0.000373676 0)
(0.995728 -0.000672477 0)
(0.994734 -0.000814317 0)
(0.993186 0.00125505 0)
(0.992172 0.0016633 0)
(0.991662 0.0049032 0)
(0.992272 0.00785214 0)
(0.999784 -0.00254132 0)
(0.994991 0.00233484 0)
(1.00417 0.00668062 0)
(1.00451 -0.00492366 0)
(0.996635 -0.000509655 0)
(0.999905 0.00188651 0)
(0.999568 0.00148561 0)
(0.999901 0.00491715 0)
(1.00495 0.000643043 0)
(1.00395 -2.48324e-05 0)
(0.999652 -0.00559205 0)
(0.997512 -0.000993655 0)
(0.998236 -0.00237536 0)
(0.996527 -0.000447883 0)
(0.995831 -0.000519687 0)
(0.995023 -0.000697122 0)
(0.993522 0.00130581 0)
(0.992513 0.00194236 0)
(0.992051 0.00488115 0)
(0.992532 0.00787354 0)
(0.999715 -0.00247349 0)
(0.994995 0.0022649 0)
(1.00417 0.00655555 0)
(1.00473 -0.00480506 0)
(0.996446 -0.000427721 0)
(0.999642 0.00181614 0)
(0.999507 0.00147835 0)
(0.999847 0.00479081 0)
(1.00495 0.000640507 0)
(1.00392 -2.90229e-05 0)
(0.999683 -0.00529058 0)
(0.997525 -0.00107209 0)
(0.998164 -0.00219781 0)
(0.996565 -0.000508703 0)
(0.995892 -0.000384521 0)
(0.995233 -0.000573383 0)
(0.993791 0.00136845 0)
(0.992804 0.0022077 0)
(0.992421 0.00488772 0)
(0.992818 0.00785081 0)
(0.99969 -0.00240285 0)
(0.995044 0.00219239 0)
(1.00412 0.00642212 0)
(1.00482 -0.00467705 0)
(0.996399 -0.000341834 0)
(0.999485 0.00174898 0)
(0.99949 0.00145868 0)
(0.999793 0.00466827 0)
(1.00489 0.000627201 0)
(1.00384 -2.42807e-05 0)
(0.999691 -0.00499077 0)
(0.99757 -0.0011341 0)
(0.998128 -0.00203062 0)
(0.996611 -0.0005574 0)
(0.995927 -0.000258678 0)
(0.99539 -0.000448459 0)
(0.994014 0.00144403 0)
(0.993059 0.00246032 0)
(0.992771 0.00490324 0)
(0.993122 0.00778774 0)
(0.999691 -0.00233024 0)
(0.995129 0.00211843 0)
(1.00403 0.00628196 0)
(1.00481 -0.00454145 0)
(0.996435 -0.000255787 0)
(0.999408 0.00168925 0)
(0.999506 0.00142608 0)
(0.99974 0.00455345 0)
(1.00479 0.000603417 0)
(1.00371 -1.14898e-05 0)
(0.999683 -0.00469557 0)
(0.997638 -0.00118297 0)
(0.99812 -0.00187011 0)
(0.996668 -0.000599171 0)
(0.995954 -0.000133212 0)
(0.995516 -0.000321526 0)
(0.994215 0.00152482 0)
(0.993294 0.00270584 0)
(0.993108 0.00492378 0)
(0.993441 0.00769349 0)
(0.999706 -0.00225645 0)
(0.995241 0.0020441 0)
(1.00393 0.00613571 0)
(1.00475 -0.00439896 0)
(0.996516 -0.000173771 0)
(0.999382 0.00163941 0)
(0.999547 0.00138036 0)
(0.99969 0.00444809 0)
(1.00468 0.000569227 0)
(1.00356 1.00521e-05 0)
(0.999662 -0.0044073 0)
(0.997722 -0.00122015 0)
(0.998132 -0.00171112 0)
(0.996737 -0.000636592 0)
(0.995983 -8.33935e-06 0)
(0.995629 -0.000185488 0)
(0.994412 0.00159892 0)
(0.993523 0.00294699 0)
(0.993437 0.00495709 0)
(0.993773 0.00757688 0)
(0.999726 -0.00218214 0)
(0.995371 0.00197017 0)
(1.00381 0.0059837 0)
(1.00466 -0.00424996 0)
(0.996618 -9.66554e-05 0)
(0.999384 0.00159987 0)
(0.999603 0.00132179 0)
(0.999644 0.00435351 0)
(1.00455 0.000526984 0)
(1.0034 3.77301e-05 0)
(0.999632 -0.00412154 0)
(0.997815 -0.00125271 0)
(0.998157 -0.00154575 0)
(0.996815 -0.000673696 0)
(0.99602 0.000118374 0)
(0.995737 -4.01536e-05 0)
(0.994617 0.00165479 0)
(0.993755 0.00317395 0)
(0.993759 0.0050058 0)
(0.994117 0.00744176 0)
(0.999749 -0.00210741 0)
(0.99551 0.00189654 0)
(1.00369 0.00582649 0)
(1.00455 -0.00409384 0)
(0.996731 -2.59221e-05 0)
(0.999399 0.00157219 0)
(0.999669 0.00124944 0)
(0.999603 0.00427115 0)
(1.00442 0.000478275 0)
(1.00324 6.83043e-05 0)
(0.999595 -0.00383332 0)
(0.997914 -0.00128783 0)
(0.998189 -0.00137172 0)
(0.996901 -0.000706543 0)
(0.99607 0.000241535 0)
(0.995842 0.000124196 0)
(0.994834 0.00169884 0)
(0.993999 0.00337658 0)
(0.994075 0.00507085 0)
(0.994466 0.00729158 0)
(0.999773 -0.00203296 0)
(0.995655 0.00182446 0)
(1.00357 0.00566318 0)
(1.00443 -0.00392938 0)
(0.996848 3.39765e-05 0)
(0.999416 0.00155834 0)
(0.999739 0.00116346 0)
(0.999565 0.00419825 0)
(1.00429 0.00042659 0)
(1.00309 9.58908e-05 0)
(0.999551 -0.00353878 0)
(0.998016 -0.00132973 0)
(0.998226 -0.00118914 0)
(0.996991 -0.000725779 0)
(0.996133 0.000349768 0)
(0.995947 0.000321821 0)
(0.995063 0.00174466 0)
(0.994256 0.00354313 0)
(0.994382 0.00515418 0)
(0.994814 0.00713525 0)
(0.999797 -0.00195897 0)
(0.995804 0.00175413 0)
(1.00345 0.00549312 0)
(1.00432 -0.00375682 0)
(0.996969 8.40114e-05 0)
(0.999432 0.00155886 0)
(0.999811 0.00106408 0)
(0.999531 0.00413197 0)
(1.00415 0.000376379 0)
(1.00294 0.000113067 0)
(0.999502 -0.0032322 0)
(0.99812 -0.00137995 0)
(0.998267 -0.00100262 0)
(0.997084 -0.000727644 0)
(0.996213 0.000434924 0)
(0.996054 0.00054857 0)
(0.995298 0.00180382 0)
(0.994529 0.003663 0)
(0.994683 0.00525072 0)
(0.995155 0.00698892 0)
(0.99982 -0.0018856 0)
(0.995955 0.00168584 0)
(1.00332 0.00531545 0)
(1.0042 -0.00357523 0)
(0.997091 0.000123533 0)
(0.999445 0.00157213 0)
(0.999884 0.000957027 0)
(0.999499 0.0040697 0)
(1.00402 0.000329815 0)
(1.00281 0.000120035 0)
(0.999448 -0.00290572 0)
(0.998225 -0.00143767 0)
(0.998315 -0.000821393 0)
(0.997176 -0.000701615 0)
(0.996311 0.000490923 0)
(0.996165 0.000786511 0)
(0.995536 0.00188399 0)
(0.994818 0.00373293 0)
(0.994979 0.00534376 0)
(0.995482 0.00686766 0)
(0.999844 -0.00181328 0)
(0.996109 0.00162074 0)
(1.0032 0.00512954 0)
(1.00408 -0.00338322 0)
(0.997216 0.000150963 0)
(0.999455 0.00159962 0)
(0.999958 0.000840827 0)
(0.999469 0.00400937 0)
(1.00388 0.000299694 0)
(1.00268 0.000110115 0)
(0.99939 -0.00255929 0)
(0.99833 -0.00149716 0)
(0.998371 -0.000652785 0)
(0.997266 -0.000634273 0)
(0.996427 0.000522369 0)
(0.996285 0.00101944 0)
(0.995772 0.00199142 0)
(0.995121 0.0037604 0)
(0.995277 0.00541143 0)
(0.995791 0.00678457 0)
(0.999868 -0.00174241 0)
(0.996264 0.00155968 0)
(1.00308 0.00493504 0)
(1.00397 -0.0031806 0)
(0.997343 0.000165562 0)
(0.999462 0.00163971 0)
(1.00003 0.000718362 0)
(0.999442 0.00394676 0)
(1.00374 0.000286612 0)
(1.00257 7.60017e-05 0)
(0.999327 -0.00220139 0)
(0.998433 -0.00154837 0)
(0.998439 -0.000508184 0)
(0.997355 -0.00052025 0)
(0.99656 0.000543227 0)
(0.996418 0.00123733 0)
(0.996004 0.00213086 0)
(0.995434 0.00376508 0)
(0.995583 0.00543172 0)
(0.996083 0.00674051 0)
(0.999892 -0.00167396 0)
(0.996421 0.00150456 0)
(1.00295 0.00473089 0)
(1.00385 -0.00296804 0)
(0.997473 0.000167731 0)
(0.999466 0.00168852 0)
(1.00011 0.000598967 0)
(0.999418 0.00387007 0)
(1.00359 0.000290968 0)
(1.00247 1.83523e-05 0)
(0.999263 -0.00183973 0)
(0.99853 -0.00158054 0)
(0.998522 -0.000394062 0)
(0.997443 -0.000361676 0)
(0.996705 0.0005655 0)
(0.996569 0.0014282 0)
(0.99623 0.0022937 0)
(0.995749 0.00376552 0)
(0.995902 0.00539254 0)
(0.996364 0.00670456 0)
(0.999916 -0.00160692 0)
(0.996578 0.0014538 0)
(1.00283 0.00451646 0)
(1.00373 -0.0027442 0)
(0.997605 0.000159393 0)
(0.999469 0.00174532 0)
(1.00018 0.000484229 0)
(0.999399 0.00377468 0)
(1.00344 0.00032782 0)
(1.00238 -6.04588e-05 0)
(0.999199 -0.00148646 0)
(0.998621 -0.00157535 0)
(0.998622 -0.000314638 0)
(0.997532 -0.000169814 0)
(0.996861 0.000600138 0)
(0.996739 0.00158341 0)
(0.996455 0.00246759 0)
(0.996059 0.00377551 0)
(0.996232 0.00530469 0)
(0.996647 0.0066352 0)
(0.999941 -0.00154288 0)
(0.996736 0.00140987 0)
(1.00271 0.00429139 0)
(1.00362 -0.00250893 0)
(0.997738 0.0001424 0)
(0.99947 0.00180664 0)
(1.00025 0.000381624 0)
(0.999386 0.00365713 0)
(1.00329 0.000393558 0)
(1.00231 -0.000152766 0)
(0.999138 -0.00115043 0)
(0.998702 -0.00152174 0)
(0.998739 -0.000270373 0)
(0.997626 4.85136e-05 0)
(0.997021 0.000660622 0)
(0.99693 0.00170227 0)
(0.996681 0.00264273 0)
(0.996358 0.00380702 0)
(0.996568 0.00519437 0)
(0.996945 0.00651089 0)
(0.999964 -0.00148224 0)
(0.996893 0.00137389 0)
(1.00259 0.00405591 0)
(1.0035 -0.00226743 0)
(0.997872 0.000120867 0)
(0.99947 0.00186665 0)
(1.00033 0.000298477 0)
(0.999381 0.00351029 0)
(1.00313 0.000484266 0)
(1.00225 -0.000248847 0)
(0.999085 -0.000839992 0)
(0.998772 -0.00142026 0)
(0.998873 -0.000251402 0)
(0.997729 0.000278555 0)
(0.997181 0.000754566 0)
(0.99714 0.00178691 0)
(0.996914 0.00280214 0)
(0.996645 0.00385887 0)
(0.9969 0.00508671 0)
(0.997261 0.00633679 0)
(0.999988 -0.00142427 0)
(0.997049 0.00134412 0)
(1.00248 0.00381024 0)
(1.00338 -0.00202222 0)
(0.998006 9.83244e-05 0)
(0.999468 0.00192081 0)
(1.0004 0.000241244 0)
(0.999385 0.00333575 0)
(1.00296 0.000594323 0)
(1.0022 -0.00033813 0)
(0.999043 -0.000565563 0)
(0.99883 -0.00127559 0)
(0.999023 -0.000249205 0)
(0.997845 0.000498582 0)
(0.997339 0.000880495 0)
(0.997365 0.00184131 0)
(0.997159 0.002933 0)
(0.996921 0.00392205 0)
(0.997222 0.00499749 0)
(0.997589 0.0061393 0)
(1.00001 -0.00136987 0)
(0.997203 0.00132227 0)
(1.00237 0.00355702 0)
(1.00326 -0.00177723 0)
(0.99814 8.06476e-05 0)
(0.999466 0.00196022 0)
(1.00046 0.000214714 0)
(0.9994 0.00314326 0)
(1.0028 0.000712929 0)
(1.00216 -0.000408555 0)
(0.999016 -0.000326222 0)
(0.998876 -0.00108942 0)
(0.999186 -0.000246942 0)
(0.997979 0.000705253 0)
(0.997492 0.00103676 0)
(0.9976 0.00187236 0)
(0.99742 0.00303142 0)
(0.997191 0.00399082 0)
(0.997529 0.00492595 0)
(0.997919 0.00594625 0)
(1.00003 -0.00131978 0)
(0.997354 0.00130893 0)
(1.00226 0.0033018 0)
(1.00315 -0.00154028 0)
(0.998273 7.31495e-05 0)
(0.999463 0.00198022 0)
(1.00052 0.000218365 0)
(0.999425 0.00293388 0)
(1.00263 0.000833566 0)
(1.00213 -0.00044956 0)
(0.999004 -0.000118775 0)
(0.998911 -0.000873179 0)
(0.999359 -0.000238054 0)
(0.998133 0.000891566 0)
(0.997638 0.00122194 0)
(0.997841 0.00189 0)
(0.997699 0.0030904 0)
(0.997458 0.00406412 0)
(0.997819 0.00486493 0)
(0.998242 0.00576921 0)
(1.00005 -0.00127321 0)
(0.9975 0.00130149 0)
(1.00216 0.00304641 0)
(1.00303 -0.00131732 0)
(0.998403 8.39865e-05 0)
(0.999461 0.00197718 0)
(1.00057 0.00025286 0)
(0.999459 0.00271898 0)
(1.00247 0.000936671 0)
(1.0021 -0.000463364 0)
(0.999011 6.12507e-05 0)
(0.998936 -0.00063637 0)
(0.99954 -0.000217374 0)
(0.998311 0.00104842 0)
(0.997777 0.00142952 0)
(0.99808 0.00190832 0)
(0.998 0.00309906 0)
(0.997727 0.00413748 0)
(0.998094 0.00482017 0)
(0.998552 0.00560626 0)
(1.00008 -0.00122989 0)
(0.997641 0.0012988 0)
(1.00205 0.00279282 0)
(1.00292 -0.00111802 0)
(0.99853 0.000121785 0)
(0.999461 0.00194599 0)
(1.00061 0.000310309 0)
(0.9995 0.0025161 0)
(1.00231 0.00101801 0)
(1.00208 -0.000454951 0)
(0.999037 0.000220179 0)
(0.998953 -0.000382496 0)
(0.999723 -0.000180069 0)
(0.998515 0.00117198 0)
(0.997913 0.00165499 0)
(0.998307 0.00194841 0)
(0.998322 0.00305399 0)
(0.998008 0.00418839 0)
(0.998351 0.00480096 0)
(0.998846 0.0054509 0)
(1.0001 -0.00118969 0)
(0.997776 0.00130016 0)
(1.00196 0.00254706 0)
(1.00282 -0.000948669 0)
(0.998652 0.000190372 0)
(0.999462 0.00189141 0)
(1.00065 0.000382693 0)
(0.999545 0.00233482 0)
(1.00216 0.00108066 0)
(1.00207 -0.000424706 0)
(0.999083 0.000366268 0)
(0.998963 -0.000110155 0)
(0.999904 -0.000128034 0)
(0.998748 0.00125472 0)
(0.99805 0.00188737 0)
(0.998514 0.00202821 0)
(0.998659 0.0029721 0)
(0.99831 0.00419157 0)
(0.998594 0.00480756 0)
(0.999116 0.00531301 0)
(1.00011 -0.00115176 0)
(0.997904 0.00130297 0)
(1.00186 0.00231867 0)
(1.00272 -0.000818576 0)
(0.998769 0.000293483 0)
(0.999462 0.00182245 0)
(1.00068 0.000455691 0)
(0.999592 0.00218915 0)
(1.00202 0.00112835 0)
(1.00206 -0.000383708 0)
(0.999151 0.000503117 0)
(0.998967 0.000170663 0)
(1.00008 -5.53348e-05 0)
(0.99901 0.00129537 0)
(0.998198 0.00210767 0)
(0.998694 0.00214971 0)
(0.998998 0.00288109 0)
(0.998643 0.00413618 0)
(0.998834 0.00481893 0)
(0.999358 0.00521233 0)
(1.00013 -0.00111625 0)
(0.998025 0.00130561 0)
(1.00176 0.00211189 0)
(1.00263 -0.000728934 0)
(0.998881 0.000421097 0)
(0.99946 0.00175053 0)
(1.00071 0.000512553 0)
(0.999641 0.00208447 0)
(1.00187 0.00116969 0)
(1.00206 -0.000345065 0)
(0.999243 0.000628756 0)
(0.998967 0.000457707 0)
(1.00023 3.4009e-05 0)
(0.999298 0.00129209 0)
(0.998365 0.00229771 0)
(0.998846 0.00230879 0)
(0.999325 0.00280554 0)
(0.999005 0.00402934 0)
(0.999085 0.00480503 0)
(0.999574 0.00514834 0)
(1.00015 -0.00108124 0)
(0.998139 0.00130544 0)
(1.00165 0.00192857 0)
(1.00255 -0.000679429 0)
(0.998988 0.000559757 0)
(0.999453 0.00169013 0)
(1.00074 0.000541574 0)
(0.99969 0.00200579 0)
(1.00173 0.001224 0)
(1.00206 -0.000309857 0)
(0.999361 0.000728028 0)
(0.998964 0.000754149 0)
(1.00036 0.000151661 0)
(0.999609 0.0012479 0)
(0.998563 0.00243925 0)
(0.998975 0.00249767 0)
(0.999627 0.00276117 0)
(0.99939 0.00388385 0)
(0.999359 0.00474948 0)
(0.999777 0.0050953 0)
(1.00016 -0.00104688 0)
(0.998247 0.00130108 0)
(1.00155 0.00177573 0)
(1.00248 -0.000670038 0)
(0.999093 0.000693415 0)
(0.999436 0.00166 0)
(1.00077 0.000542197 0)
(0.999746 0.00194284 0)
(1.00159 0.00130059 0)
(1.00207 -0.000271513 0)
(0.999506 0.000789395 0)
(0.998964 0.00105028 0)
(1.00047 0.000319047 0)
(0.999933 0.0011853 0)
(0.998801 0.00251768 0)
(0.99909 0.00269788 0)
(0.999891 0.00276021 0)
(0.999786 0.00371525 0)
(0.999663 0.00465283 0)
(0.999981 0.00502849 0)
(1.00018 -0.00101103 0)
(0.998349 0.00128778 0)
(1.00143 0.00165238 0)
(1.00242 -0.000690447 0)
(0.999199 0.000809179 0)
(0.999408 0.00167259 0)
(1.00079 0.000524392 0)
(0.999809 0.0018837 0)
(1.00145 0.00140606 0)
(1.00207 -0.000215366 0)
(0.999681 0.000801953 0)
(0.998976 0.00132658 0)
(1.00053 0.000538279 0)
(1.00026 0.00113437 0)
(0.999081 0.00253121 0)
(0.999204 0.00288614 0)
(1.00011 0.00281112 0)
(1.00018 0.00354427 0)
(0.999997 0.00451823 0)
(1.0002 0.00494057 0)
(1.00019 -0.000973153 0)
(0.998446 0.00126438 0)
(1.0013 0.00155732 0)
(1.00236 -0.000728741 0)
(0.999311 0.000889833 0)
(0.999367 0.00173198 0)
(1.0008 0.000496019 0)
(0.999883 0.00180724 0)
(1.0013 0.00154343 0)
(1.00206 -0.000125385 0)
(0.99988 0.000768423 0)
(0.999011 0.00155631 0)
(1.00056 0.000800489 0)
(1.00056 0.00111607 0)
(0.999401 0.00248766 0)
(0.999331 0.00303568 0)
(1.00028 0.00290849 0)
(1.00055 0.00339478 0)
(1.00036 0.00434584 0)
(1.00043 0.00483378 0)
(1.0002 -0.0009306 0)
(0.998538 0.00122547 0)
(1.00117 0.00149508 0)
(1.0023 -0.000776106 0)
(0.999432 0.000923039 0)
(0.999315 0.00183087 0)
(1.0008 0.000477481 0)
(0.999972 0.00170231 0)
(1.00117 0.00169221 0)
(1.00202 1.25075e-05 0)
(1.0001 0.000711686 0)
(0.999078 0.0017253 0)
(1.00056 0.0010854 0)
(1.00083 0.00114359 0)
(0.999751 0.00240659 0)
(0.999488 0.00312841 0)
(1.00041 0.00303141 0)
(1.00087 0.00328766 0)
(1.00073 0.00414277 0)
(1.00068 0.0047106 0)
(1.0002 -0.000882504 0)
(0.998627 0.00116831 0)
(1.00102 0.0014628 0)
(1.00224 -0.000821005 0)
(0.999565 0.000904844 0)
(0.999254 0.00195377 0)
(1.00078 0.000489439 0)
(1.00007 0.00156199 0)
(1.00104 0.00183202 0)
(1.00195 0.0002104 0)
(1.00032 0.000654105 0)
(0.999184 0.00181677 0)
(1.00055 0.00136542 0)
(1.00106 0.00122056 0)
(1.00011 0.00231079 0)
(0.99968 0.00315966 0)
(1.00051 0.00315337 0)
(1.00114 0.00323266 0)
(1.00111 0.00392636 0)
(1.00095 0.00456741 0)
(1.00021 -0.000829667 0)
(0.998715 0.00109337 0)
(1.00087 0.00145731 0)
(1.00218 -0.000848755 0)
(0.999713 0.000825805 0)
(0.999191 0.00208109 0)
(1.00073 0.000550591 0)
(1.00019 0.00139942 0)
(1.00094 0.00194577 0)
(1.00186 0.000457266 0)
(1.00052 0.00062112 0)
(0.999328 0.00183085 0)
(1.00053 0.0016105 0)
(1.00124 0.00133793 0)
(1.00048 0.002221 0)
(0.99991 0.00313653 0)
(1.0006 0.00325334 0)
(1.00135 0.00322868 0)
(1.00147 0.00372036 0)
(1.00124 0.00439114 0)
(1.00021 -0.000768255 0)
(0.998803 0.000996308 0)
(1.00071 0.00146759 0)
(1.0021 -0.000849611 0)
(0.999876 0.000699802 0)
(0.999135 0.00218624 0)
(1.00065 0.000676725 0)
(1.0003 0.00123797 0)
(1.00087 0.00200795 0)
(1.00174 0.00073637 0)
(1.0007 0.000642116 0)
(0.999503 0.00180305 0)
(1.00053 0.00180862 0)
(1.00137 0.00148361 0)
(1.00082 0.00215163 0)
(1.00017 0.00307212 0)
(1.0007 0.00331359 0)
(1.00151 0.00326155 0)
(1.0018 0.00355254 0)
(1.00156 0.00417346 0)
(1.0002 -0.00069989 0)
(0.998892 0.000881413 0)
(1.00055 0.00148835 0)
(1.002 -0.000814695 0)
(1.00005 0.000543227 0)
(0.999096 0.00224767 0)
(1.00054 0.000862008 0)
(1.00041 0.00109867 0)
(1.00083 0.00200633 0)
(1.00161 0.00101971 0)
(1.00085 0.000728006 0)
(0.999698 0.00176139 0)
(1.00054 0.00195556 0)
(1.00147 0.00164275 0)
(1.00113 0.00210842 0)
(1.00046 0.00297902 0)
(1.00082 0.00332294 0)
(1.00162 0.00330062 0)
(1.00206 0.00344309 0)
(1.00188 0.00393603 0)
(1.0002 -0.000626785 0)
(0.998983 0.000754816 0)
(1.00039 0.0015116 0)
(1.00189 -0.000735055 0)
(1.00023 0.00036443 0)
(0.999084 0.00225669 0)
(1.0004 0.00108093 0)
(1.0005 0.001007 0)
(1.00083 0.00194953 0)
(1.00148 0.00127788 0)
(1.00095 0.000864457 0)
(0.999898 0.0017218 0)
(1.00058 0.00205277 0)
(1.00154 0.0017995 0)
(1.0014 0.00209925 0)
(1.00075 0.00287471 0)
(1.00097 0.00328892 0)
(1.00171 0.00331482 0)
(1.00226 0.00338352 0)
(1.00219 0.00372208 0)
(1.00019 -0.000547744 0)
(0.999077 0.000618554 0)
(1.00024 0.001525 0)
(1.00176 -0.000611838 0)
(1.00042 0.000182321 0)
(0.999107 0.00220036 0)
(1.00025 0.00131779 0)
(1.00055 0.000978554 0)
(1.00086 0.00185465 0)
(1.00137 0.00148964 0)
(1.00102 0.0010399 0)
(1.00009 0.00170503 0)
(1.00064 0.00211613 0)
(1.00159 0.0019379 0)
(1.00164 0.00211623 0)
(1.00104 0.00277072 0)
(1.00113 0.00322274 0)
(1.0018 0.00329272 0)
(1.00242 0.0033375 0)
(1.00245 0.00355808 0)
(1.00018 -0.000465412 0)
(0.999174 0.000481184 0)
(1.00011 0.00152094 0)
(1.0016 -0.000451929 0)
(1.00059 1.64437e-05 0)
(0.999169 0.00207573 0)
(1.0001 0.00154896 0)
(1.00057 0.00101407 0)
(1.00092 0.00175479 0)
(1.00129 0.00164024 0)
(1.00106 0.00122515 0)
(1.00027 0.00171 0)
(1.00072 0.00215349 0)
(1.00163 0.00206051 0)
(1.00183 0.0021527 0)
(1.00132 0.00268106 0)
(1.00131 0.00313343 0)
(1.00189 0.00324588 0)
(1.00254 0.00327572 0)
(1.00267 0.00343174 0)
(1.00017 -0.000383691 0)
(0.999274 0.000353496 0)
(0.999996 0.00149315 0)
(1.00143 -0.000266809 0)
(1.00075 -0.00012017 0)
(0.999271 0.00189738 0)
(0.999953 0.00174069 0)
(1.00055 0.00110914 0)
(1.00098 0.0016607 0)
(1.00123 0.00174606 0)
(1.00107 0.00140885 0)
(1.00043 0.00173906 0)
(1.00082 0.0021682 0)
(1.00167 0.00216437 0)
(1.00198 0.00220547 0)
(1.00157 0.00261265 0)
(1.0015 0.00302656 0)
(1.00199 0.00317743 0)
(1.00264 0.00319515 0)
(1.00285 0.00331237 0)
(1.00015 -0.000304519 0)
(0.999373 0.000241069 0)
(0.999907 0.00143787 0)
(1.00124 -7.43312e-05 0)
(1.00088 -0.000213767 0)
(0.999408 0.00168308 0)
(0.999838 0.00187799 0)
(1.0005 0.00125148 0)
(1.00103 0.00158902 0)
(1.00121 0.00180185 0)
(1.00108 0.00158461 0)
(1.00056 0.00179286 0)
(1.00093 0.00217282 0)
(1.00172 0.002235 0)
(1.00211 0.00226955 0)
(1.00178 0.0025723 0)
(1.00169 0.00292187 0)
(1.00209 0.00308517 0)
(1.00273 0.00310221 0)
(1.003 0.00318049 0)
(1.00014 -0.00022943 0)
(0.99947 0.000146316 0)
(0.999842 0.00135391 0)
(1.00105 0.000123569 0)
(1.00098 -0.000247538 0)
(0.999575 0.00144858 0)
(0.999759 0.00194825 0)
(1.00042 0.00140906 0)
(1.00107 0.00156603 0)
(1.00121 0.00181851 0)
(1.00109 0.00173294 0)
(1.00066 0.00186615 0)
(1.00103 0.00217876 0)
(1.00178 0.00227891 0)
(1.00221 0.00232547 0)
(1.00196 0.00256182 0)
(1.00186 0.00283619 0)
(1.00218 0.00298025 0)
(1.0028 0.00299848 0)
(1.00313 0.00303989 0)
(1.00012 -0.00016229 0)
(0.999562 7.49354e-05 0)
(0.999804 0.00124644 0)
(1.00086 0.000315566 0)
(1.00105 -0.000222762 0)
(0.999758 0.00121743 0)
(0.999724 0.00194812 0)
(1.00033 0.00155971 0)
(1.0011 0.00157649 0)
(1.00123 0.00182591 0)
(1.0011 0.00184679 0)
(1.00074 0.00194898 0)
(1.00113 0.00218239 0)
(1.00184 0.00230623 0)
(1.00231 0.00235834 0)
(1.00212 0.00256307 0)
(1.002 0.00277694 0)
(1.00227 0.0028781 0)
(1.00286 0.00288343 0)
(1.00323 0.00289923 0)
(1.00011 -0.000103251 0)
(0.999647 2.64454e-05 0)
(0.999789 0.00112319 0)
(1.00068 0.000483475 0)
(1.00108 -0.000147851 0)
(0.999946 0.00100813 0)
(0.999735 0.00188894 0)
(1.00025 0.00169325 0)
(1.0011 0.00161108 0)
(1.00127 0.00182407 0)
(1.00113 0.00192983 0)
(1.00081 0.00203405 0)
(1.00122 0.00219222 0)
(1.00191 0.00230967 0)
(1.0024 0.00237758 0)
(1.00225 0.00255558 0)
(1.00211 0.00274448 0)
(1.00233 0.00279976 0)
(1.0029 0.00276576 0)
(1.0033 0.00276274 0)
(1.00009 -5.31683e-05 0)
(0.999723 2.12158e-07 0)
(0.999797 0.000994163 0)
(1.00052 0.000616951 0)
(1.00108 -3.46688e-05 0)
(1.00013 0.00083484 0)
(0.99979 0.00179063 0)
(1.00017 0.00178498 0)
(1.00108 0.00166569 0)
(1.00131 0.00182124 0)
(1.00117 0.00198539 0)
(1.00086 0.00210763 0)
(1.00128 0.00221666 0)
(1.00198 0.00229134 0)
(1.0025 0.0023699 0)
(1.00238 0.00253614 0)
(1.00221 0.00271105 0)
(1.00236 0.00275336 0)
(1.00292 0.0026616 0)
(1.00335 0.00262881 0)
(1.00008 -1.3315e-05 0)
(0.999789 -4.60279e-06 0)
(0.999822 0.000868654 0)
(1.00038 0.000708739 0)
(1.00104 0.000100078 0)
(1.00029 0.000711138 0)
(0.999878 0.00166936 0)
(1.00012 0.00183411 0)
(1.00105 0.00171615 0)
(1.00134 0.0018204 0)
(1.00123 0.00202023 0)
(1.00091 0.00216505 0)
(1.00133 0.00223695 0)
(1.00203 0.00228103 0)
(1.00259 0.00232927 0)
(1.00251 0.00249753 0)
(1.00231 0.00266442 0)
(1.00236 0.00271968 0)
(1.00289 0.00259143 0)
(1.00336 0.00250221 0)
(1.00007 1.91609e-05 0)
(0.999845 4.94283e-06 0)
(0.999861 0.000753262 0)
(1.00026 0.000767153 0)
(1.00099 0.000237911 0)
(1.00043 0.000641176 0)
(0.999993 0.00153748 0)
(1.0001 0.00185074 0)
(1.00101 0.00175839 0)
(1.00137 0.00181419 0)
(1.00129 0.00203204 0)
(1.00096 0.00222428 0)
(1.00136 0.00224874 0)
(1.00206 0.00226308 0)
(1.00266 0.00228238 0)
(1.00264 0.00242361 0)
(1.00242 0.00260299 0)
(1.00237 0.00268138 0)
(1.00282 0.0025598 0)
(1.00333 0.00240366 0)
(1.00006 4.43781e-05 0)
(0.999889 2.68013e-05 0)
(0.999909 0.000653716 0)
(1.00017 0.000794787 0)
(1.00092 0.000364416 0)
(1.00054 0.000611942 0)
(1.00012 0.00141385 0)
(1.0001 0.00183409 0)
(1.00097 0.00179287 0)
(1.0014 0.00180588 0)
(1.00137 0.00201244 0)
(1.001 0.00226244 0)
(1.00136 0.00228331 0)
(1.00207 0.00222442 0)
(1.00272 0.0022311 0)
(1.00276 0.00233714 0)
(1.00254 0.00250969 0)
(1.00238 0.00262747 0)
(1.00272 0.002544 0)
(1.00324 0.00234815 0)
(1.00005 6.31065e-05 0)
(0.999923 5.43134e-05 0)
(0.999961 0.00057238 0)
(1.0001 0.000800773 0)
(1.00085 0.000476841 0)
(1.00062 0.000606864 0)
(1.00026 0.00130781 0)
(1.00012 0.00179296 0)
(1.00093 0.00181114 0)
(1.00141 0.00179548 0)
(1.00145 0.00197851 0)
(1.00107 0.00225809 0)
(1.00134 0.0023319 0)
(1.00205 0.0022125 0)
(1.00276 0.00215468 0)
(1.00286 0.00225362 0)
(1.00266 0.00239844 0)
(1.00243 0.00254057 0)