/*--------------------------------*- C++ -*----------------------------------*\
| =========                 |                                                 |
| \\      /  F ield         | OpenFOAM: The Open Source CFD Toolbox           |
|  \\    /   O peration     | Version:  3.0.1                                 |
|   \\  /    A nd           | Web:      www.OpenFOAM.org                      |
|    \\/     M anipulation  |                                                 |
\*---------------------------------------------------------------------------*/
FoamFile
{
    version     2.0;
    format      ascii;
    class       volScalarField;
    location    "3.7";
    object      p;
}
// * * * * * * * * * * * * * * * * * * * * * * * * * * * * * * * * * * * * * //

dimensions      [0 2 -2 0 0 0 0];

internalField   nonuniform List<scalar> 
9600
(
3.62311e-11
-0.00231685
-0.00349311
-0.000569982
-0.00201194
-0.00293373
-3.73922e-05
0.0020283
-0.000163597
0.00161069
0.00236753
0.00140735
0.000756989
0.00183198
0.00282342
0.00425336
0.00440504
0.00631563
0.0083386
0.0145172
-1.68789e-07
-0.00230709
-0.00348718
-0.000629471
-0.00201196
-0.00288588
-4.30831e-05
0.00202151
-0.000159255
0.0015951
0.00236653
0.00139523
0.000784146
0.00183969
0.00283219
0.0042554
0.00444398
0.00630198
0.00843026
0.0139483
6.79013e-07
-0.00229567
-0.00348994
-0.000698085
-0.00199877
-0.00284676
-5.81828e-05
0.0020122
-0.000154572
0.00157185
0.00236517
0.0013849
0.000814812
0.00184521
0.00284129
0.00425829
0.00447034
0.00628078
0.00842884
0.0134103
1.21081e-06
-0.00228561
-0.00349512
-0.000754485
-0.00197862
-0.00281594
-7.20528e-05
0.00200213
-0.000150953
0.00155002
0.00235998
0.00137839
0.000850184
0.00184919
0.00285069
0.00425614
0.00449487
0.00624643
0.0084145
0.0129021
7.07445e-07
-0.00227608
-0.00349598
-0.000796191
-0.0019533
-0.0027905
-8.09583e-05
0.00198929
-0.000147476
0.00152902
0.00234978
0.00137496
0.000889816
0.00185037
0.00285947
0.00425035
0.004518
0.00620477
0.00838135
0.0124184
-1.40154e-06
-0.00226626
-0.00349039
-0.000820307
-0.00192513
-0.00276861
-8.30482e-05
0.00197364
-0.000144122
0.00150662
0.00233657
0.00137359
0.000931873
0.0018488
0.00286901
0.00424258
0.00453941
0.00615788
0.00832615
0.0119538
-5.32361e-06
-0.00225564
-0.00347719
-0.00082715
-0.00189718
-0.00274755
-7.80733e-05
0.00195682
-0.000141223
0.00148226
0.0023236
0.00137326
0.000974682
0.00184596
0.00287983
0.00423304
0.00455871
0.00610635
0.0082471
0.0115078
-1.08891e-05
-0.00224359
-0.00345628
-0.00082089
-0.00187122
-0.00272491
-6.73979e-05
0.00194043
-0.000138866
0.00145614
0.00231317
0.00137317
0.00101757
0.00184281
0.00289084
0.00422265
0.00457407
0.00604985
0.00814464
0.0110793
-1.7564e-05
-0.0022296
-0.00342884
-0.00080669
-0.00184752
-0.00269974
-5.31235e-05
0.00192529
-0.000136983
0.00142841
0.00230629
0.00137298
0.00106023
0.00183939
0.00290131
0.00421264
0.00458274
0.00598866
0.008021
0.010664
-2.46923e-05
-0.00221363
-0.00339656
-0.000788791
-0.00182569
-0.0026723
-3.70892e-05
0.00191141
-0.00013542
0.00139917
0.00230307
0.00137249
0.00110218
0.00183591
0.00291096
0.0042036
0.00458288
0.00592359
0.00787827
0.0102565
-3.17499e-05
-0.00219604
-0.00336078
-0.000770078
-0.00180533
-0.00264336
-2.04533e-05
0.00189828
-0.00013394
0.00136844
0.00230311
0.00137131
0.00114289
0.0018333
0.00291884
0.00419593
0.00457383
0.00585453
0.00771814
0.00985285
-3.84469e-05
-0.00217738
-0.00332228
-0.000752297
-0.00178609
-0.00261352
-3.85499e-06
0.0018853
-0.00013225
0.00133613
0.00230584
0.00136918
0.00118192
0.00183246
0.00292364
0.00419026
0.00455533
0.00577958
0.00754374
0.00945194
-4.46822e-05
-0.00215814
-0.00328143
-0.000736352
-0.00176763
-0.00258304
1.23729e-05
0.00187209
-0.00013009
0.00130213
0.00231073
0.0013661
0.0012187
0.00183416
0.00292443
0.00418686
0.00452697
0.0056962
0.00735977
0.0090539
-5.04511e-05
-0.00213863
-0.00323839
-0.000722582
-0.00174947
-0.00255192
2.80443e-05
0.00185853
-0.000127285
0.00126628
0.00231743
0.00136234
0.0012525
0.00183919
0.0029207
0.00418523
0.00448927
0.00560159
0.00717052
0.00865967
-5.57764e-05
-0.00211898
-0.00319326
-0.000710977
-0.00173108
-0.00251998
4.30362e-05
0.00184467
-0.00012375
0.00122846
0.00232571
0.00135847
0.00128248
0.00184811
0.00291208
0.00418424
0.00444408
0.00549274
0.00697832
0.00827076
-6.0674e-05
-0.0020992
-0.0031461
-0.000701364
-0.00171201
-0.002487
5.72522e-05
0.00183067
-0.000119486
0.00118862
0.00233537
0.00135524
0.00130782
0.00186119
0.00289849
0.00418221
0.00439399
0.00536739
0.00678348
0.00788996
-6.51461e-05
-0.00207922
-0.00309696
-0.000693544
-0.00169191
-0.00245274
7.05604e-05
0.00181668
-0.000114539
0.00114676
0.00234617
0.00135334
0.00132776
0.00187849
0.00288037
0.00417684
0.00434125
0.00522465
0.00658527
0.00752099
-6.91881e-05
-0.00205895
-0.00304588
-0.000687337
-0.0016706
-0.00241695
8.27551e-05
0.0018028
-0.000108885
0.00110297
0.0023578
0.00135335
0.0013416
0.00189967
0.00285899
0.00416569
0.00428676
0.00506463
0.00638269
0.00716767
-7.27922e-05
-0.00203825
-0.00299291
-0.000682583
-0.00164802
-0.00237935
9.35974e-05
0.0017891
-0.000102447
0.00105728
0.00236994
0.00135595
0.00134872
0.00192384
0.00283615
0.0041469
0.00423059
0.00488888
0.006174
0.00683339
-7.59569e-05
-0.002017
-0.00293813
-0.000679147
-0.00162423
-0.00233973
0.00010285
0.00177566
-9.51895e-05
0.00100973
0.00238233
0.00136274
0.00134879
0.00194977
0.00281297
0.00411893
0.00417276
0.00469965
0.00595691
0.00652074
-7.87001e-05
-0.00199501
-0.00288164
-0.0006769
-0.00159936
-0.00229785
0.000110273
0.00176249
-8.70138e-05
0.000960264
0.00239475
0.0013714
0.00134187
0.00197648
0.0027899
0.0040806
0.00411312
0.00449935
0.00572882
0.00623113
-8.10618e-05
-0.00197207
-0.00282358
-0.000675708
-0.00157358
-0.00225345
0.000115664
0.00174953
-7.76833e-05
0.000908768
0.00240696
0.00138302
0.00132813
0.00200333
0.00276747
0.00403101
0.00405148
0.00429089
0.00548717
0.00596419
-8.3104e-05
-0.00194792
-0.00276411
-0.000675419
-0.00154709
-0.00220638
0.000118873
0.00173669
-6.68882e-05
0.000855046
0.00241875
0.0013978
0.00130746
0.00202948
0.00274588
0.00396929
0.00398788
0.00407783
0.00522951
0.00571777
-8.49206e-05
-0.00192228
-0.00270346
-0.000675868
-0.00152009
-0.00215651
0.000119835
0.00172381
-5.41967e-05
0.000798756
0.00242989
0.0014163
0.00127957
0.00205385
0.00272553
0.00389441
0.00392241
0.00386459
0.00495338
0.00548745
-8.66352e-05
-0.00189476
-0.00264185
-0.000676879
-0.00149276
-0.00210365
0.000118621
0.00171044
-3.90042e-05
0.000739483
0.0024398
0.00143935
0.00124413
0.00207526
0.00270767
0.00380551
0.00385393
0.00365638
0.00465711
0.0052655
-8.83995e-05
-0.00186499
-0.00257954
-0.000678253
-0.00146527
-0.00204776
0.00011545
0.00169606
-2.0573e-05
0.000677009
0.00244754
0.00146783
0.00120072
0.00209208
0.00269399
0.00370209
0.00377934
0.00345943
0.00434206
0.00504041
-9.03956e-05
-0.00183252
-0.0025168
-0.000679822
-0.00143772
-0.00198904
0.000110769
0.00168008
1.83119e-06
0.000611518
0.00245177
0.00150279
0.00114918
0.00210167
0.00268632
0.00358464
0.00369368
0.00328016
0.00401488
0.004798
-9.28407e-05
-0.00179683
-0.00245386
-0.000681489
-0.00141007
-0.0019278
0.00010524
0.00166176
2.8651e-05
0.000543507
0.0024509
0.00154556
0.00109
0.00210051
0.00268639
0.00345556
0.00359146
0.00312247
0.00368803
0.00452546
-9.59937e-05
-0.00175745
-0.00239094
-0.000683123
-0.00138225
-0.00186457
9.96466e-05
0.00164042
6.0036e-05
0.000473646
0.00244297
0.00159705
0.00102475
0.00208467
0.00269509
0.00331969
0.00346739
0.00298443
0.00337606
0.00421855
-0.000100123
-0.00171386
-0.0023282
-0.000684651
-0.00135413
-0.0017999
9.49617e-05
0.0016154
9.56021e-05
0.000403063
0.00242597
0.00165724
0.000955636
0.00205052
0.00271163
0.00318321
0.00331782
0.00285768
0.00309296
0.0038868
-0.000105504
-0.00166554
-0.00226573
-0.000686182
-0.00132531
-0.0017346
9.21665e-05
0.00158616
0.000134391
0.000333582
0.00239815
0.00172496
0.000885799
0.00199522
0.00273316
0.00305284
0.00314272
0.00273147
0.00284704
0.00355056
-0.000112422
-0.00161203
-0.00220348
-0.000688003
-0.00129498
-0.00166986
9.1854e-05
0.00155292
0.000175239
0.00026701
0.00235811
0.00179824
0.000819113
0.00191718
0.00275507
0.00293445
0.00294597
0.00259576
0.00263623
0.00323023
-0.000121137
-0.00155293
-0.00214132
-0.000690537
-0.00126223
-0.00160677
9.4147e-05
0.0015167
0.000216624
0.00020456
0.00230525
0.00187474
0.0007592
0.00181576
0.00277174
0.00283251
0.00273356
0.00244381
0.00245136
0.00294027
-0.000131898
-0.00148796
-0.00207887
-0.000694283
-0.00122616
-0.00154619
9.85854e-05
0.00147902
0.000257047
0.000146747
0.0022394
0.00195179
0.000709231
0.00169081
0.00277703
0.00275094
0.00251198
0.00227233
0.00228377
0.00268529
-0.00014497
-0.00141704
-0.00201529
-0.000699958
-0.00118568
-0.00148829
0.000103651
0.00144144
0.000295895
9.36363e-05
0.0021604
0.0020267
0.000672282
0.00154313
0.00276397
0.00269303
0.00228868
0.00207836
0.00212733
0.00246377
-0.000160545
-0.00134048
-0.00194939
-0.000708285
-0.00114025
-0.00143276
0.00010728
0.00140537
0.000333302
4.4674e-05
0.00206825
0.00209677
0.000651306
0.00137535
0.00272478
0.00266012
0.002074
0.00185805
0.00197535
0.00227512
-0.00017913
-0.00125908
-0.00187942
-0.000719579
-0.00109006
-0.00137874
0.000107298
0.00137159
0.000369821
-8.59705e-07
0.00196283
0.00215868
0.000649071
0.00119267
0.00265198
0.00264925
0.00188138
0.00161034
0.00181651
0.00211951
-0.00019961
-0.00117406
-0.00180336
-0.000733675
-0.00103556
-0.00132488
0.000101841
0.00133971
0.00040652
-4.32118e-05
0.00184383
0.00220845
0.000667598
0.00100241
0.00253963
0.00265137
0.00172465
0.00134269
0.00163582
0.00199173
-0.000222267
-0.00108698
-0.00171893
-0.000750024
-0.000974464
-0.00126943
8.96927e-05
0.00130856
0.000444965
-8.15341e-05
0.00171134
0.00224215
0.000707528
0.000813095
0.0023846
0.00265288
0.00161329
0.00107075
0.00141998
0.00187713
-0.000246585
-0.000999359
-0.00162483
-0.000767998
-0.000919508
-0.00121032
7.00774e-05
0.00127577
0.000486697
-0.000114692
0.0015659
0.00225566
0.00076803
0.000634096
0.00218839
0.0026397
0.00154932
0.000813938
0.00116362
0.00175355
-0.000272063
-0.000912795
-0.00151981
-0.000786249
-0.000868074
-0.00114566
4.3701e-05
0.0012379
0.000532101
-0.000140097
0.00140948
0.00224462
0.000845563
0.000474496
0.00195638
0.00259867
0.00152762
0.000590741
0.000873902
0.00159834
-0.000297706
-0.00082902
-0.00140314
-0.000802361
-0.000822197
-0.00107491
1.22935e-05
0.00119104
0.000579684
-0.000153444
0.00124636
0.00220525
0.0009338
0.000342956
0.00169721
0.00251878
0.001537
0.000415409
0.000567229
0.00139551
-0.000322298
-0.000749224
-0.0012782
-0.000813916
-0.000782143
-0.000997772
-2.22635e-05
0.00113014
0.000625189
-0.00015149
0.0010817
0.00213572
0.0010249
0.000246039
0.00142292
0.00239269
0.00156227
0.000296506
0.00026449
0.00114047
-0.000344548
-0.000674845
-0.00114651
-0.000817748
-0.000749238
-0.000914928
-5.5975e-05
0.00105177
0.000663486
-0.000132678
0.000921632
0.00203705
0.00110952
0.000184811
0.00114683
0.00221851
0.00158587
0.000236549
-1.22527e-05
0.000841713
-0.000362718
-0.000607368
-0.00100907
-0.000810202
-0.000728196
-0.000832305
-8.25277e-05
0.000963567
0.000691462
-9.93142e-05
0.000772108
0.00191298
0.00117892
0.000156009
0.000881524
0.0020003
0.00159008
0.000229282
-0.000243229
0.000517388
-0.000375564
-0.000547233
-0.000871796
-0.000790196
-0.000718107
-0.000751471
-9.69578e-05
0.000870016
0.000704252
-5.57098e-05
0.000637351
0.00176858
0.00122655
0.000154426
0.00063695
0.00174658
0.00156009
0.000259715
-0.000414104
0.000192265
-0.000381808
-0.000494722
-0.00073851
-0.000755758
-0.00071467
-0.000677702
-9.80705e-05
0.000776732
0.000700348
-8.47913e-06
0.000519476
0.00160959
0.00124929
0.000173757
0.000420542
0.00146878
0.00148687
0.000308474
-0.000519338
-0.000108146
-0.000380586
-0.00044971
-0.000611791
-0.000705405
-0.000715861
-0.00061318
-8.58234e-05
0.000690909
0.000681732
3.63314e-05
0.000418384
0.00144237
0.00124552
0.000206674
0.000237071
0.00117915
0.001368
0.000356413
-0.000564061
-0.000361447
-0.00037135
-0.000410649
-0.000495348
-0.000639753
-0.000717818
-0.000569371
-6.69955e-05
0.000618379
0.000653033
7.45101e-05
0.00033127
0.00127103
0.00121545
0.000246533
8.97896e-05
0.000890953
0.0012069
0.000387448
-0.000562721
-0.000553399
-0.000353463
-0.000375706
-0.000392411
-0.000561068
-0.000715032
-0.000545156
-4.90854e-05
0.000560989
0.000620494
0.000105162
0.000254842
0.00109827
0.00116187
0.000288715
-2.06626e-05
0.000616236
0.00101
0.000388371
-0.000534336
-0.000682928
-0.000327066
-0.000342467
-0.000305268
-0.000474028
-0.000701986
-0.000540234
-3.99234e-05
0.000517186
0.0005902
0.000129671
0.00018853
0.00092732
0.0010855
0.000326637
-9.74083e-05
0.000364112
0.000787375
0.000352643
-0.000496367
-0.000759301
-0.000292759
-0.000307971
-0.000235026
-0.000386397
-0.000674616
-0.000548152
-4.41902e-05
0.000484831
0.00056623
0.000150493
0.000132028
0.000760082
0.000985946
0.000352424
-0.000144295
0.000142938
0.000551751
0.000280567
-0.000462299
-0.00079649
-0.000251828
-0.000270857
-0.00018205
-0.000303863
-0.000629873
-0.000558907
-6.53223e-05
0.000454569
0.000548366
0.000170677
8.46389e-05
0.000599689
0.000866992
0.00036056
-0.000167946
-4.13757e-05
0.000315308
0.000174825
-0.000442234
-0.000808133
-0.000206167
-0.000231093
-0.00014229
-0.000229548
-0.000568301
-0.000562751
-0.000101541
0.000415396
0.000534175
0.000193753
4.81905e-05
0.000449425
0.000732927
0.000346954
-0.000178656
-0.000187095
9.09431e-05
4.16239e-05
-0.000442357
-0.00080459
-0.000157404
-0.000188168
-0.000112796
-0.000166602
-0.000494447
-0.0005538
-0.000149644
0.000361899
0.000518633
0.00022008
2.59249e-05
0.000312733
0.000587283
0.00030968
-0.000185885
-0.000298465
-0.000109709
-0.000108525
-0.000466025
-0.00079396
-0.000107284
-0.00014193
-8.82428e-05
-0.000116946
-0.000415738
-0.00052951
-0.000200041
0.000294423
0.000493693
0.000246507
1.88204e-05
0.000195195
0.000437293
0.000249017
-0.000196699
-0.000383276
-0.000281445
-0.00026319
-0.000513455
-0.000783532
-5.70363e-05
-9.28488e-05
-6.53475e-05
-8.042e-05
-0.000340251
-0.000490693
-0.000242258
0.000215734
0.000453416
0.000268839
2.41108e-05
0.000101174
0.000291994
0.000167533
-0.000217187
-0.000449458
-0.000425473
-0.000411903
-0.000580924
-0.000780176
-7.48627e-06
-4.18448e-05
-4.22719e-05
-5.58327e-05
-0.000274101
-0.000439732
-0.00027043
0.000131522
0.000396223
0.000280766
3.82144e-05
3.13263e-05
0.000159098
7.23446e-05
-0.000251363
-0.000503587
-0.000544961
-0.000548451
-0.00066183
-0.000789877
4.06418e-05
9.64332e-06
-1.58151e-05
-3.98084e-05
-0.000220016
-0.000383454
-0.000282931
5.12265e-05
0.000324998
0.000275692
5.62603e-05
-1.5713e-05
4.42851e-05
-2.78125e-05
-0.00029927
-0.00055193
-0.000643011
-0.000669533
-0.00074778
-0.000814441
8.70956e-05
6.01407e-05
1.44498e-05
-2.8224e-05
-0.000178809
-0.000329276
-0.000281674
-1.6895e-05
0.00024494
0.000250897
6.99307e-05
-4.39857e-05
-4.83149e-05
-0.000125363
-0.000356987
-0.000599928
-0.000724337
-0.000774129
-0.000831392
-0.000850018
0.00013182
0.000108187
4.80697e-05
-1.70287e-05
-0.00014945
-0.000282329
-0.000269442
-6.97046e-05
0.000163842
0.000209773
7.19036e-05
-6.00529e-05
-0.000117355
-0.000212792
-0.000418146
-0.000648787
-0.000794532
-0.000863887
-0.000908939
-0.000891015
0.000174574
0.000152931
8.27585e-05
-4.26869e-06
-0.000129947
-0.000245406
-0.000251646
-0.000107798
8.92416e-05
0.000158049
6.06934e-05
-7.23935e-05
-0.000167522
-0.000284929
-0.00047729
-0.000695884
-0.000855889
-0.000941314
-0.000979388
-0.000933888
0.000215093
0.000193913
0.000115707
9.96578e-06
-0.000116636
-0.00021889
-0.000234113
-0.000133585
2.54641e-05
0.000101086
3.85851e-05
-8.51914e-05
-0.000203981
-0.00034087
-0.000529837
-0.000738849
-0.000907496
-0.00100721
-0.00104202
-0.00097637
0.000253025
0.000230905
0.000145039
2.46848e-05
-0.000106756
-0.000201416
-0.000220471
-0.000149937
-2.5803e-05
4.49496e-05
8.20624e-06
-9.9693e-05
-0.000229956
-0.000381799
-0.000571912
-0.000776275
-0.000949177
-0.00106089
-0.00109583
-0.00101592
0.000287672
0.000263692
0.000170517
3.88227e-05
-9.90936e-05
-0.000191412
-0.000212343
-0.00016111
-6.53798e-05
-4.19521e-06
-2.58121e-05
-0.000117426
-0.000248138
-0.000408658
-0.000600434
-0.000804068
-0.000980289
-0.00110113
-0.00113969
-0.00105097
0.000318292
0.000292102
0.000191563
5.08188e-05
-9.29632e-05
-0.000186853
-0.000209665
-0.000171066
-9.67583e-05
-4.44012e-05
-5.7148e-05
-0.000136004
-0.000260975
-0.000422774
-0.00061436
-0.000817469
-0.000997949
-0.00112593
-0.00116999
-0.00107815
0.000344159
0.000315715
0.000208131
5.91992e-05
-8.9499e-05
-0.000186582
-0.00021175
-0.000180934
-0.000121565
-7.72458e-05
-8.31166e-05
-0.000150332
-0.00026731
-0.000424906
-0.000613922
-0.000814887
-0.000998772
-0.0011339
-0.0011842
-0.00109361
0.000364721
0.00033405
0.00021957
6.33851e-05
-8.9936e-05
-0.000190461
-0.000218417
-0.000192137
-0.000140917
-0.000102393
-0.000103676
-0.000158339
-0.000263699
-0.000413271
-0.000596971
-0.00079449
-0.000979615
-0.00112204
-0.00118034
-0.00109514
0.000379127
0.000346222
0.000225672
6.29788e-05
-9.50433e-05
-0.00019877
-0.000228916
-0.000205821
-0.000158105
-0.000120124
-0.00011646
-0.000158723
-0.000248144
-0.000384934
-0.000559404
-0.000751418
-0.000936006
-0.0010849
-0.00115354
-0.00107798
0.000386439
0.00034918
0.000225977
5.74092e-05
-0.000105405
-0.00021308
-0.000244498
-0.000221863
-0.000174292
-0.000132745
-0.000120439
-0.000148038
-0.000218451
-0.000336564
-0.000496175
-0.000678343
-0.000859623
-0.00101375
-0.00109505
-0.00103455
0.000386608
0.000350218
0.000219086
4.51146e-05
-0.000121452
-0.000233009
-0.000266941
-0.000243468
-0.000190983
-0.000142049
-0.000117466
-0.000124404
-0.000171952
-0.000265358
-0.000401014
-0.000565557
-0.000736999
-0.000892034
-0.000986126
-0.000948507
0.000377312
0.000338942
0.000205894
2.66385e-05
-0.000144828
-0.000259238
-0.000296444
-0.00027367
-0.000213455
-0.000150848
-0.000109056
-8.84726e-05
-0.000105318
-0.000167645
-0.000269265
-0.00040684
-0.000560071
-0.000704733
-0.000800539
-0.000784448
0.000357072
0.000316915
0.000185171
1.31458e-06
-0.000175292
-0.000293296
-0.000334792
-0.000316435
-0.000251948
-0.000169706
-9.87232e-05
-3.70966e-05
-4.97805e-06
-2.53029e-05
-9.15435e-05
-0.00020251
-0.000338508
-0.000467904
-0.00055187
-0.000523838
0.000330797
0.000291827
0.000150866
-3.63801e-05
-0.000212959
-0.000333609
-0.000382045
-0.000374057
-0.000319183
-0.000234429
-0.000122211
2.49424e-05
0.000175684
0.000284768
0.000326087
0.000278299
0.00013247
-8.52187e-05
-0.000307269
-0.000440957
0.000291203
0.000251652
0.000105631
-8.1883e-05
-0.000254901
-0.000373705
-0.000429376
-0.000440046
-0.000412298
-0.000379333
-0.000347163
-0.00023537
2.37786e-05
0.000355318
0.000644547
0.000863763
0.00106024
0.00126282
0.00146644
0.0016091
0.000234334
0.000188482
4.75956e-05
-0.000134666
-0.000297845
-0.00040641
-0.000460848
-0.000485502
-0.000457447
-0.000314534
-4.14408e-05
0.000276146
0.000547571
0.000752799
0.000902706
0.00101283
0.00110127
0.00117261
0.00122198
0.00120468
0.000159363
0.000122905
-2.49064e-05
-0.000212621
-0.000387788
-0.000507538
-0.000517357
-0.000386635
-0.000175424
2.43008e-05
0.000174949
0.000298689
0.00040259
0.000525284
0.000697047
0.00091011
0.00117741
0.00147205
0.00174558
0.00191484
3.8975e-05
3.01511e-05
-5.04657e-05
-0.000156862
-0.00024149
-0.000274528
-0.000250993
-0.000184445
-7.70597e-05
5.94336e-05
0.000198387
0.000362744
0.000533421
0.000655631
0.000721858
0.000684379
0.000527221
0.0002693
-4.33364e-05
-0.000320375
-0.00012818
-0.000150572
-0.000136938
-0.000132448
-0.000156481
-0.000192418
-0.000209069
-0.000189764
-0.000125289
-2.05849e-07
0.000142035
0.000281448
0.000463347
0.000652786
0.000859256
0.00111114
0.00139101
0.00167068
0.00188713
0.0019665
-0.000227874
-0.000235043
-0.000184189
-0.000139661
-0.00012873
-0.000139741
-0.000137817
-9.75048e-05
-2.834e-05
8.8058e-05
0.000243839
0.000394412
0.000570685
0.000756458
0.000916868
0.00105957
0.00117882
0.00126744
0.00129124
0.00119867
0.0172375
0.0106212
0.00232639
-0.0035427
-0.00506331
-0.00427787
-0.00330866
-0.00261628
-0.00208855
-0.00162706
-0.00122326
-0.000909729
-0.000721805
-0.000668888
-0.000645542
-0.000465504
-0.000133788
0.000143687
0.000283752
0.000354859
0.000419171
0.000537441
0.000714407
0.000854749
0.000930702
0.00105302
0.00129534
0.00160113
0.00187444
0.00208263
0.00226914
0.00247576
0.00268267
0.00285401
0.00300009
0.00314705
0.00328795
0.00341408
0.00355586
0.00374822
0.00396254
0.00415379
0.00433621
0.00455459
0.00479637
0.00501134
0.00520807
0.00543534
0.00567954
0.00589488
0.0060991
0.00634155
0.00659015
0.00682264
0.0070814
0.00736014
0.00762337
0.00789227
0.00816797
0.00843939
0.00872351
0.00902313
0.00932437
0.00963386
0.00994413
0.0102524
0.0105748
0.0109158
0.0112685
0.0116273
0.0119882
0.0123469
0.0127169
0.0130988
0.0134971
0.0139023
0.0143163
0.0147311
0.0151534
0.015584
0.0160252
0.0164783
0.0169381
0.0174098
0.0178839
0.0183695
0.0188592
0.0193658
0.0198773
0.0204031
0.020931
0.0214741
0.0220222
0.0225853
0.0231445
0.0237243
0.0242805
0.0248504
0.0253131
0.0256983
0.0164454
0.0104688
0.00241357
-0.0033943
-0.00497788
-0.00423901
-0.00328625
-0.00260126
-0.00207721
-0.00161772
-0.00121514
-0.000902386
-0.000715164
-0.000663221
-0.000641101
-0.000461974
-0.00013053
0.000146843
0.000286631
0.000357423
0.000421386
0.000539368
0.000716288
0.000856635
0.0009324
0.00105447
0.00129669
0.0016025
0.00187581
0.00208393
0.0022703
0.00247685
0.00268375
0.00285506
0.00300108
0.00314799
0.00328886
0.00341495
0.00355666
0.00374897
0.00396328
0.00415451
0.00433686
0.00455519
0.00479697
0.00501193
0.0052086
0.00543584
0.00568003
0.00589536
0.00609954
0.00634196
0.00659055
0.00682302
0.00708175
0.00736048
0.00762371
0.00789259
0.00816827
0.00843968
0.00872379
0.0090234
0.00932463
0.00963411
0.00994438
0.0102527
0.010575
0.010916
0.0112687
0.0116275
0.0119884
0.0123471
0.012717
0.0130989
0.0134973
0.0139025
0.0143164
0.0147312
0.0151536
0.0155842
0.0160253
0.0164785
0.0169382
0.0174099
0.017884
0.0183696
0.0188593
0.0193659
0.0198775
0.0204032
0.0209311
0.0214742
0.0220223
0.0225854
0.0231446
0.0237244
0.0242805
0.0248505
0.0253132
0.0256983
0.0157308
0.010309
0.00257726
-0.00312967
-0.00483317
-0.00418506
-0.00325826
-0.00258165
-0.00206271
-0.00160653
-0.00120627
-0.000895083
-0.000708616
-0.000657128
-0.000635816
-0.000457629
-0.000126854
0.000150009
0.000289403
0.00035994
0.000423573
0.000541214
0.000718002
0.000858269
0.000933809
0.00105567
0.00129788
0.00160376
0.0018771
0.00208511
0.00227135
0.00247783
0.00268472
0.002856
0.00300196
0.00314882
0.00328965
0.00341568
0.00355732
0.00374961
0.00396394
0.00415514
0.00433742
0.00455572
0.00479751
0.00501245
0.00520906
0.00543627
0.00568048
0.00589579
0.00609991
0.00634231
0.00659092
0.00682334
0.00708205
0.00736079
0.007624
0.00789286
0.00816854
0.00843993
0.00872402
0.00902363
0.00932485
0.00963433
0.00994459
0.0102529
0.0105752
0.0109162
0.0112689
0.0116277
0.0119886
0.0123472
0.0127172
0.0130991
0.0134974
0.0139026
0.0143166
0.0147314
0.0151537
0.0155843
0.0160254
0.0164786
0.0169383
0.01741
0.0178841
0.0183697
0.0188594
0.019366
0.0198775
0.0204033
0.0209312
0.0214743
0.0220223
0.0225855
0.0231446
0.0237245
0.0242806
0.0248505
0.0253133
0.0256983
0.0150479
0.0101375
0.0027833
-0.00279109
-0.00462816
-0.0041024
-0.00321307
-0.00254962
-0.00203966
-0.0015897
-0.00119414
-0.000886506
-0.000701515
-0.000649542
-0.000627682
-0.000450396
-0.000121516
0.000153823
0.000292788
0.000363498
0.000426937
0.000543892
0.000720031
0.000859938
0.000935288
0.00105704
0.00129919
0.00160508
0.00187845
0.00208643
0.00227254
0.0024789
0.00268576
0.00285702
0.00300291
0.00314968
0.00329045
0.00341641
0.00355801
0.00375029
0.00396463
0.00415579
0.00433802
0.00455629
0.00479808
0.005013
0.00520955
0.00543673
0.00568095
0.00589623
0.00610029
0.00634268
0.00659129
0.00682367
0.00708236
0.00736112
0.00762431
0.00789314
0.00816883
0.00844019
0.00872426
0.00902387
0.00932508
0.00963455
0.0099448
0.0102531
0.0105754
0.0109164
0.011269
0.0116278
0.0119888
0.0123474
0.0127174
0.0130992
0.0134976
0.0139028
0.0143167
0.0147315
0.0151538
0.0155844
0.0160255
0.0164787
0.0169384
0.0174101
0.0178842
0.0183698
0.0188595
0.0193661
0.0198776
0.0204034
0.0209313
0.0214744
0.0220224
0.0225856
0.0231447
0.0237246
0.0242807
0.0248506
0.0253134
0.0256983
0.0143705
0.00994762
0.00300212
-0.00242743
-0.00439595
-0.00400432
-0.00315744
-0.00250747
-0.00200777
-0.001566
-0.0011773
-0.000875517
-0.000693319
-0.000639997
-0.00061572
-0.00043907
-0.000113837
0.000158322
0.000296776
0.000368629
0.000432582
0.000548522
0.000723058
0.000862006
0.000937206
0.00105895
0.00130084
0.00160645
0.00187983
0.00208791
0.00227396
0.00248016
0.00268697
0.00285827
0.00300409
0.00315069
0.0032913
0.00341723
0.0035588
0.00375107
0.00396539
0.00415653
0.00433872
0.00455697
0.00479875
0.00501363
0.00521012
0.00543727
0.00568149
0.00589673
0.00610073
0.00634311
0.00659172
0.00682405
0.00708272
0.00736149
0.00762465
0.00789346
0.00816914
0.00844048
0.00872452
0.00902413
0.00932533
0.00963479
0.00994504
0.0102533
0.0105756
0.0109166
0.0112692
0.011628
0.011989
0.0123476
0.0127175
0.0130994
0.0134977
0.0139029
0.0143168
0.0147316
0.015154
0.0155846
0.0160257
0.0164788
0.0169386
0.0174102
0.0178843
0.0183699
0.0188596
0.0193662
0.0198777
0.0204035
0.0209314
0.0214745
0.0220225
0.0225857
0.0231448
0.0237246
0.0242808
0.0248508
0.0253136
0.0256983
0.0137037
0.00973981
0.00321426
-0.00206105
-0.00415247
-0.00390098
-0.00310001
-0.00246153
-0.00197061
-0.00153719
-0.00115643
-0.00086211
-0.00068385
-0.00062862
-0.000600305
-0.000423927
-0.000103929
0.000163327
0.000301018
0.00037508
0.000440683
0.000555684
0.000727733
0.000865039
0.000940098
0.00106187
0.00130307
0.00160788
0.00188113
0.00208949
0.00227554
0.00248148
0.00268826
0.00285981
0.00300566
0.00315194
0.00329228
0.0034182
0.00355981
0.00375197
0.00396619
0.00415735
0.00433959
0.0045578
0.00479951
0.00501436
0.00521084
0.00543795
0.00568211
0.00589732
0.00610126
0.00634361
0.0065922
0.00682448
0.00708314
0.00736192
0.00762505
0.00789384
0.00816951
0.00844081
0.00872483
0.00902443
0.00932562
0.00963507
0.00994531
0.0102535
0.0105758
0.0109168
0.0112695
0.0116282
0.0119892
0.0123478
0.0127177
0.0130996
0.0134979
0.0139031
0.014317
0.0147318
0.0151541
0.0155847
0.0160258
0.0164789
0.0169387
0.0174103
0.0178845
0.0183701
0.0188597
0.0193663
0.0198778
0.0204036
0.0209315
0.0214746
0.0220226
0.0225858
0.0231449
0.0237247
0.0242809
0.0248509
0.0253139
0.0256984
0.0130557
0.00951172
0.00340778
-0.00169948
-0.00390012
-0.00379326
-0.00304282
-0.00241434
-0.00193022
-0.00150472
-0.00113248
-0.00084663
-0.000673121
-0.000615869
-0.000582666
-0.000406312
-9.25351e-05
0.000168597
0.00030522
0.000382256
0.000450592
0.000565026
0.000734156
0.000869484
0.000944529
0.00106629
0.0013062
0.0016095
0.00188237
0.00209113
0.00227718
0.00248264
0.00268938
0.00286152
0.00300768
0.00315358
0.0032935
0.00341946
0.00356115
0.00375308
0.00396704
0.00415825
0.00434065
0.0045588
0.00480037
0.00501523
0.00521176
0.0054388
0.00568285
0.00589801
0.00610193
0.00634422
0.00659275
0.006825
0.00708366
0.00736243
0.00762552
0.00789429
0.00816995
0.0084412
0.00872519
0.00902479
0.00932597
0.0096354
0.00994562
0.0102538
0.0105761
0.010917
0.0112697
0.0116285
0.0119894
0.012348
0.0127179
0.0130998
0.0134981
0.0139033
0.0143172
0.014732
0.0151543
0.0155849
0.0160259
0.0164791
0.0169388
0.0174105
0.0178846
0.0183702
0.0188598
0.0193664
0.0198779
0.0204037
0.0209316
0.0214747
0.0220227
0.0225859
0.023145
0.0237248
0.0242811
0.0248511
0.0253143
0.0256985
0.0124291
0.0092592
0.00357658
-0.00134301
-0.00363577
-0.00367807
-0.00298526
-0.00236674
-0.00188748
-0.00146926
-0.00110589
-0.000829255
-0.000661194
-0.00060215
-0.000563793
-0.000387337
-8.02355e-05
0.000174124
0.000309404
0.0003897
0.00046136
0.000575591
0.000741813
0.000875306
0.000950711
0.00107248
0.00131047
0.0016115
0.00188368
0.00209292
0.00227891
0.00248352
0.00269006
0.00286309
0.00300996
0.00315558
0.00329506
0.00342117
0.00356302
0.00375453
0.00396801
0.00415927
0.00434192
0.00455995
0.00480127
0.0050162
0.0052129
0.00543985
0.00568372
0.00589887
0.00610278
0.00634496
0.00659339
0.00682563
0.00708429
0.00736304
0.00762609
0.00789484
0.00817047
0.00844168
0.00872564
0.00902523
0.00932638
0.00963579
0.00994598
0.0102541
0.0105764
0.0109173
0.01127
0.0116288
0.0119897
0.0123482
0.0127181
0.0131
0.0134983
0.0139035
0.0143174
0.0147322
0.0151545
0.015585
0.0160261
0.0164793
0.016939
0.0174106
0.0178848
0.0183703
0.01886
0.0193666
0.0198781
0.0204038
0.0209317
0.0214748
0.0220228
0.022586
0.0231451
0.0237249
0.0242812
0.0248513
0.0253148
0.0256986
0.0118238
0.00898322
0.0037208
-0.000989709
-0.00335677
-0.0035533
-0.00292727
-0.00231974
-0.00184312
-0.001431
-0.00107664
-0.000809954
-0.000648145
-0.000587734
-0.000544164
-0.000367472
-6.72005e-05
0.000180051
0.000313755
0.000397291
0.000472427
0.000586611
0.000750064
0.000882086
0.000958375
0.0010803
0.00131591
0.00161399
0.00188515
0.0020949
0.00228079
0.00248422
0.00269023
0.00286422
0.00301211
0.00315769
0.00329691
0.0034234
0.00356552
0.00375645
0.0039692
0.00416049
0.00434345
0.00456125
0.00480218
0.00501722
0.00521424
0.0054411
0.00568472
0.0058999
0.00610387
0.00634587
0.00659414
0.00682638
0.00708504
0.00736374
0.00762677
0.00789552
0.00817111
0.00844226
0.00872619
0.00902577
0.0093269
0.00963627
0.00994643
0.0102546
0.0105767
0.0109177
0.0112703
0.0116291
0.01199
0.0123485
0.0127184
0.0131002
0.0134985
0.0139037
0.0143176
0.0147324
0.0151547
0.0155852
0.0160263
0.0164795
0.0169392
0.0174108
0.0178849
0.0183705
0.0188602
0.0193667
0.0198782
0.020404
0.0209319
0.0214749
0.0220229
0.0225861
0.0231452
0.0237251
0.0242814
0.0248516
0.0253154
0.0256988
0.0112407
0.00869041
0.00384186
-0.000641003
-0.00306396
-0.00341816
-0.00286879
-0.00227401
-0.00179745
-0.0013897
-0.00104438
-0.000788571
-0.000634001
-0.000572719
-0.000523872
-0.000346753
-5.33838e-05
0.00018648
0.000318368
0.000405045
0.000483673
0.000597837
0.000758569
0.000889394
0.000967057
0.00108941
0.00132239
0.00161699
0.0018868
0.00209707
0.00228289
0.0024849
0.00269004