/*--------------------------------*- C++ -*----------------------------------*\
| =========                 |                                                 |
| \\      /  F ield         | OpenFOAM: The Open Source CFD Toolbox           |
|  \\    /   O peration     | Version:  3.0.1                                 |
|   \\  /    A nd           | Web:      www.OpenFOAM.org                      |
|    \\/     M anipulation  |                                                 |
\*---------------------------------------------------------------------------*/
FoamFile
{
    version     2.0;
    format      ascii;
    class       surfaceScalarField;
    location    "3.7";
    object      phi;
}
// * * * * * * * * * * * * * * * * * * * * * * * * * * * * * * * * * * * * * //

dimensions      [0 3 -1 0 0 0 0];

internalField   nonuniform List<scalar> 
19000
(
1.16913e-06
-3.88795e-09
1.22791e-06
-4.41607e-07
1.24096e-06
7.88909e-07
1.05595e-06
6.73162e-07
1.08486e-06
-6.49117e-07
1.20609e-06
-2.6996e-07
1.18286e-06
-2.21342e-07
1.16808e-06
5.51113e-07
1.17315e-06
2.28942e-07
1.13034e-06
4.4531e-07
1.13794e-06
2.63796e-07
1.11787e-06
-1.0154e-07
1.14217e-06
-4.77528e-08
1.14628e-06
1.19375e-07
1.14214e-06
1.28655e-09
1.15358e-06
1.21956e-07
1.15439e-06
-6.79893e-09
1.15522e-06
7.94018e-08
1.15188e-06
-1.02645e-09
3.93641e-08
1.12426e-06
1.2234e-06
-3.02926e-09
1.28324e-06
-5.01448e-07
1.29742e-06
7.74731e-07
1.11872e-06
8.51865e-07
1.14503e-06
-6.75424e-07
1.26261e-06
-3.87542e-07
1.24084e-06
-1.9957e-07
1.23117e-06
5.6078e-07
1.23258e-06
2.27526e-07
1.19552e-06
4.82376e-07
1.19551e-06
2.63806e-07
1.17997e-06
-8.60061e-08
1.19639e-06
-6.41723e-08
1.213e-06
1.02769e-07
1.19615e-06
1.81366e-08
1.22211e-06
9.59907e-08
1.2049e-06
1.04169e-08
1.2263e-06
5.79984e-08
1.19774e-06
2.75349e-08
3.01104e-08
1.20699e-06
1.27884e-06
9.09859e-10
1.33696e-06
-5.59568e-07
1.35369e-06
7.58002e-07
1.19771e-06
1.00785e-06
1.21028e-06
-6.87991e-07
1.32141e-06
-4.98678e-07
1.30309e-06
-1.81247e-07
1.29977e-06
5.64102e-07
1.29248e-06
2.34816e-07
1.27027e-06
5.04588e-07
1.25717e-06
2.76904e-07
1.25047e-06
-7.93055e-08
1.2533e-06
-6.70016e-08
1.27947e-06
7.65953e-08
1.25729e-06
4.03157e-08
1.28027e-06
7.30081e-08
1.2666e-06
2.40866e-08
1.27732e-06
4.72809e-08
1.26294e-06
4.19136e-08
3.84559e-08
1.2546e-06
1.33549e-06
9.52215e-09
1.38958e-06
-6.13659e-07
1.4106e-06
7.36983e-07
1.28964e-06
1.12881e-06
1.28104e-06
-6.79389e-07
1.37943e-06
-5.97071e-07
1.36675e-06
-1.68561e-07
1.36794e-06
5.6291e-07
1.35267e-06
2.5008e-07
1.34265e-06
5.14616e-07
1.32166e-06
2.97887e-07
1.31868e-06
-7.63273e-08
1.31456e-06
-6.2881e-08
1.33804e-06
5.3123e-08
1.32444e-06
5.39085e-08
1.33581e-06
6.16416e-08
1.33137e-06
2.85247e-08
1.33395e-06
4.46978e-08
1.32626e-06
4.96069e-08
4.87802e-08
1.31594e-06
1.39432e-06
2.35592e-08
1.44179e-06
-6.6113e-07
1.46828e-06
7.10487e-07
1.38753e-06
1.20957e-06
1.35574e-06
-6.47603e-07
1.43492e-06
-6.76255e-07
1.431e-06
-1.64641e-07
1.43328e-06
5.60636e-07
1.4143e-06
2.69054e-07
1.41014e-06
5.18778e-07
1.38938e-06
3.18653e-07
1.38515e-06
-7.20961e-08
1.37921e-06
-5.69427e-08
1.39555e-06
3.67762e-08
1.39198e-06
5.74837e-08
1.39729e-06
5.63295e-08
1.39587e-06
2.99485e-08
1.39721e-06
4.33518e-08
1.3905e-06
5.63222e-08
5.86138e-08
1.38066e-06
1.45695e-06
4.22821e-08
1.49521e-06
-6.99387e-07
1.52756e-06
6.78134e-07
1.48425e-06
1.25288e-06
1.43367e-06
-5.9703e-07
1.48909e-06
-7.31671e-07
1.49575e-06
-1.71302e-07
1.49811e-06
5.58279e-07
1.47986e-06
2.87306e-07
1.47713e-06
5.21505e-07
1.4613e-06
3.34485e-07
1.45476e-06
-6.55618e-08
1.4472e-06
-4.93821e-08
1.4576e-06
2.63807e-08
1.4595e-06
5.55858e-08
1.46411e-06
5.17133e-08
1.46317e-06
3.08892e-08
1.46402e-06
4.25066e-08
1.45823e-06
6.21108e-08
6.92921e-08
1.44755e-06
1.52511e-06
6.33905e-08
1.55206e-06
-7.26339e-07
1.5896e-06
6.40589e-07
1.5764e-06
1.26608e-06
1.51513e-06
-5.35758e-07
1.54563e-06
-7.62168e-07
1.56124e-06
-1.8691e-07
1.56571e-06
5.53805e-07
1.55083e-06
3.02189e-07
1.54827e-06
5.24062e-07
1.53773e-06
3.45031e-07
1.53001e-06
-5.78479e-08
1.5198e-06
-3.91742e-08
1.52607e-06
2.0114e-08
1.5298e-06
5.18565e-08
1.53509e-06
4.64222e-08
1.53505e-06
3.09326e-08
1.53484e-06
4.27175e-08
1.52993e-06
6.70171e-08
8.09294e-08
1.51829e-06
1.59972e-06
8.38e-08
1.61444e-06
-7.41064e-07
1.65516e-06
5.99879e-07
1.66401e-06
1.25722e-06
1.60021e-06
-4.71949e-07
1.60841e-06
-7.70371e-07
1.62833e-06
-2.06833e-07
1.63734e-06
5.44799e-07
1.62693e-06
3.126e-07
1.6252e-06
5.25785e-07
1.6183e-06
3.51938e-07
1.61049e-06
-5.00402e-08
1.59779e-06
-2.64754e-08
1.60101e-06
1.68906e-08
1.60478e-06
4.80933e-08
1.61011e-06
4.10847e-08
1.6113e-06
2.97478e-08
1.61008e-06
4.39354e-08
1.60578e-06
7.13175e-08
9.30301e-08
1.59368e-06
1.68049e-06
1.00886e-07
1.68371e-06
-7.44289e-07
1.72446e-06
5.59134e-07
1.74844e-06
1.23324e-06
1.68814e-06
-4.11647e-07
1.67955e-06
-7.61787e-07
1.69867e-06
-2.2595e-07
1.71254e-06
5.3093e-07
1.70669e-06
3.18444e-07
1.70704e-06
5.25438e-07
1.70225e-06
3.56734e-07
1.69484e-06
-4.26371e-08
1.68075e-06
-1.23835e-08
1.68161e-06
1.603e-08
1.6847e-06
4.5009e-08
1.68911e-06
3.66733e-08
1.69123e-06
2.76279e-08
1.68919e-06
4.59748e-08
1.68541e-06
7.50914e-08
1.04913e-07
1.67353e-06
1.76625e-06
1.13359e-07
1.76024e-06
-7.3828e-07
1.79777e-06
5.21609e-07
1.83125e-06
1.19976e-06
1.77795e-06
-3.5835e-07
1.7591e-06
-7.42932e-07
1.77397e-06
-2.4082e-07
1.79086e-06
5.14043e-07
1.78882e-06
3.20481e-07
1.79216e-06
5.22093e-07
1.78878e-06
3.60122e-07
1.78202e-06
-3.58782e-08
1.7678e-06
1.83786e-09
1.76686e-06
1.69621e-08
1.76916e-06
4.27174e-08
1.77191e-06
3.39151e-08
1.77444e-06
2.51039e-08
1.77162e-06
4.87907e-08
1.76827e-06
7.84445e-08
1.15845e-07
1.75734e-06
1.85582e-06
1.21292e-07
1.84363e-06
-7.26097e-07
1.87563e-06
4.89612e-07
1.91415e-06
1.16123e-06
1.86929e-06
-3.13486e-07
1.84577e-06
-7.19411e-07
1.85516e-06
-2.50214e-07
1.8726e-06
4.96604e-07
1.87304e-06
3.20039e-07
1.8796e-06
5.15536e-07
1.87748e-06
3.62244e-07
1.87156e-06
-2.9963e-08
1.85828e-06
1.51224e-08
1.85607e-06
1.91658e-08
1.85781e-06
4.09819e-08
1.85857e-06
3.31578e-08
1.861e-06
2.26749e-08
1.8574e-06
5.23833e-08
1.85414e-06
8.17075e-08
1.25222e-07
1.84476e-06
1.94858e-06
1.25551e-07
1.93311e-06
-7.10627e-07
1.95871e-06
4.6401e-07
1.99898e-06
1.12096e-06
1.9625e-06
-2.77005e-07
1.938e-06
-6.94906e-07
1.94225e-06
-2.54461e-07
1.95852e-06
4.8033e-07
1.9601e-06
3.18455e-07
1.96945e-06
5.06188e-07
1.96856e-06
3.63137e-07
1.96357e-06
-2.49772e-08
1.95199e-06
2.67055e-08
1.94894e-06
2.22162e-08
1.95051e-06
3.94114e-08
1.94928e-06
3.43844e-08
1.95121e-06
2.07436e-08
1.94694e-06
5.66556e-08
1.94329e-06
8.53603e-08
1.32715e-07
1.9358e-06
2.04455e-06
1.27187e-07
2.02786e-06
-6.93933e-07
2.04749e-06
4.44376e-07
2.08748e-06
1.08098e-06
2.05836e-06
-2.47887e-07
2.03466e-06
-6.71204e-07
2.03477e-06
-2.54575e-07
2.04927e-06
4.65829e-07
2.05112e-06
3.16611e-07
2.06255e-06
4.94755e-07
2.06274e-06
3.62943e-07
2.05855e-06
-2.07828e-08
2.04907e-06
3.61782e-08
2.04543e-06
2.58594e-08
2.0472e-06
3.76464e-08
2.04429e-06
3.72922e-08
2.04541e-06
1.96272e-08
2.04071e-06
6.13461e-08
2.03624e-06
8.98358e-08
1.38286e-07
2.03067e-06
2.14409e-06
1.27101e-07
2.12728e-06
-6.77124e-07
2.14218e-06
4.29475e-07
2.18095e-06
1.04221e-06
2.15765e-06
-2.24592e-07
2.13521e-06
-6.48761e-07
2.1323e-06
-2.51664e-07
2.14519e-06
4.52938e-07
2.14698e-06
3.14823e-07
2.15984e-06
4.81891e-07
2.16091e-06
3.61876e-07
2.15717e-06
-1.70389e-08
2.14986e-06
4.34822e-08
2.14569e-06
3.00318e-08
2.14784e-06
3.54968e-08
2.14371e-06
4.14199e-08
2.14376e-06
1.95763e-08
2.13905e-06
6.6054e-08
2.13355e-06
9.53427e-08
1.42161e-07
2.12967e-06
2.24764e-06
1.25946e-07
2.23109e-06
-6.60575e-07
2.24279e-06
4.17781e-07
2.28018e-06
1.00481e-06
2.26105e-06
-2.05458e-07
2.23961e-06
-6.27326e-07
2.23463e-06
-2.46684e-07
2.24638e-06
4.41196e-07
2.2482e-06
3.12996e-07
2.26203e-06
4.68059e-07
2.26378e-06
3.60128e-07
2.26007e-06
-1.33257e-08
2.25473e-06
4.88218e-08
2.24997e-06
3.47935e-08
2.25248e-06
3.29883e-08
2.24763e-06
4.62673e-08
2.24642e-06
2.079e-08
2.24213e-06
7.03385e-08
2.23566e-06
1.01812e-07
1.44766e-07
2.23306e-06
2.35567e-06
1.2415e-07
2.33933e-06
-6.44235e-07
2.34926e-06
4.07849e-07
2.38552e-06
9.68557e-07
2.36908e-06
-1.89015e-07
2.34813e-06
-6.06384e-07
2.34184e-06
-2.40387e-07
2.35288e-06
4.30152e-07
2.355e-06
3.10875e-07
2.36951e-06
4.53552e-07
2.37182e-06
3.57816e-07
2.36777e-06
-9.27513e-09
2.36406e-06
5.2537e-08
2.35863e-06
4.02198e-08
2.3613e-06
3.03224e-08
2.35619e-06
5.13715e-08
2.35357e-06
2.34081e-08
2.35006e-06
7.38498e-08
2.34291e-06
1.08967e-07
1.46624e-07
2.34105e-06
2.46858e-06
1.21961e-07
2.45221e-06
-6.27863e-07
2.46154e-06
3.98517e-07
2.497e-06
9.33101e-07
2.48215e-06
-1.74166e-07
2.46118e-06
-5.85414e-07
2.45415e-06
-2.33352e-07
2.4648e-06
4.195e-07
2.46745e-06
3.08225e-07
2.48244e-06
4.38558e-07
2.48526e-06
3.54995e-07
2.48064e-06
-4.64808e-09
2.47818e-06
5.4997e-08
2.47208e-06
4.63151e-08
2.47461e-06
2.77991e-08
2.46964e-06
5.63401e-08
2.46556e-06
2.74831e-08
2.46296e-06
7.64488e-08
2.45554e-06
1.16393e-07
1.48261e-07
2.4539e-06
2.58676e-06
1.19492e-07
2.57007e-06
-6.11172e-07
2.57962e-06
3.88967e-07
2.61455e-06
8.9817e-07
2.60062e-06
-1.60236e-07
2.57921e-06
-5.64004e-07
2.57187e-06
-2.26008e-07
2.58229e-06
4.09081e-07
2.5856e-06
3.04916e-07
2.60094e-06
4.23217e-07
2.60424e-06
3.51689e-07
2.59895e-06
6.43537e-10
2.59741e-06
5.65419e-08
2.59074e-06
5.29798e-08
2.5928e-06
2.57433e-08
2.58827e-06
6.0868e-08
2.58281e-06
3.29461e-08
2.58101e-06
7.82461e-08
2.57381e-06
1.2359e-07
1.50132e-07
2.57194e-06
2.71056e-06
1.16764e-07
2.69328e-06
-5.93899e-07
2.70357e-06
3.78682e-07
2.73811e-06
8.63632e-07
2.72479e-06
-1.46922e-07
2.70267e-06
-5.41882e-07
2.69532e-06
-2.1866e-07
2.70555e-06
3.98853e-07
2.70954e-06
3.00927e-07
2.72512e-06
4.07632e-07
2.72888e-06
3.47931e-07
2.72297e-06
6.55758e-09
2.72205e-06
5.74605e-08
2.715e-06
6.00287e-08
2.7163e-06
2.44431e-08
2.71242e-06
6.47524e-08
2.70575e-06
3.96095e-08
2.70447e-06
7.9526e-08
2.69801e-06
1.30055e-07
1.52551e-07
2.69559e-06
2.84028e-06
1.13749e-07
2.82222e-06
-5.75832e-07
2.83354e-06
3.6736e-07
2.86767e-06
8.295e-07
2.85493e-06
-1.34185e-07
2.83196e-06
-5.18905e-07
2.82481e-06
-2.11516e-07
2.83484e-06
3.88831e-07
2.83944e-06
2.96326e-07
2.85519e-06
3.91877e-07
2.85934e-06
3.43788e-07
2.85292e-06
1.2968e-08
2.8524e-06
5.79814e-08
2.84519e-06
6.72468e-08
2.84553e-06
2.4094e-08
2.84237e-06
6.79137e-08
2.83479e-06
4.71896e-08
2.83368e-06
8.06404e-08
2.82836e-06
1.35371e-07
1.55647e-07
2.82527e-06
2.97625e-06
1.1039e-07
2.95724e-06
-5.56818e-07
2.96976e-06
3.54837e-07
3.00337e-06
7.95893e-07
2.99132e-06
-1.22136e-07
2.96744e-06
-4.95025e-07
2.96063e-06
-2.04705e-07
2.97042e-06
3.79037e-07
2.9755e-06
2.91247e-07
2.9914e-06
3.75978e-07
2.99582e-06
3.39367e-07
2.98907e-06
1.97176e-08
2.98879e-06
5.82623e-08
2.98159e-06
7.44501e-08
2.98091e-06
2.47744e-08
2.97844e-06
7.0386e-08
2.97026e-06
5.5365e-08
2.969e-06
8.18956e-08
2.9651e-06
1.39278e-07
1.59357e-07
2.96139e-06
3.11877e-06
1.06629e-07
3.0987e-06
-5.36756e-07
3.11252e-06
3.41017e-07
3.14543e-06
7.62985e-07
3.13422e-06
-1.10925e-07
3.10946e-06
-4.70259e-07
3.10304e-06
-1.98293e-07
3.11262e-06
3.69462e-07
3.118e-06
2.85869e-07
3.13405e-06
3.59926e-07
3.13863e-06
3.34788e-07
3.13166e-06
2.66848e-08
3.13155e-06
5.83703e-08
3.12448e-06
8.15248e-08
3.12278e-06
2.64739e-08
3.12091e-06
7.22535e-08
3.11241e-06
6.38663e-08
3.11083e-06
8.34797e-08
3.1084e-06
1.41701e-07
1.63444e-07
3.10432e-06
3.26813e-06
1.02413e-07
3.24695e-06
-5.15577e-07
3.26213e-06
3.25838e-07
3.29415e-06
7.30958e-07
3.28392e-06
-1.0069e-07
3.25833e-06
-4.44674e-07
3.25232e-06
-1.92283e-07
3.26175e-06
3.60037e-07
3.26721e-06
2.80405e-07
3.28347e-06
3.43671e-07
3.2881e-06
3.30156e-07
3.28097e-06
3.38162e-08
3.28104e-06
5.82954e-08
3.27415e-06
8.84173e-08
3.27147e-06
2.91542e-08
3.27012e-06
7.36015e-08
3.26152e-06
7.24632e-08
3.25946e-06
8.55464e-08
3.25849e-06
1.42668e-07
1.67543e-07
3.25439e-06
3.42465e-06
9.76988e-08
3.40231e-06
-4.93237e-07
3.41889e-06
3.09257e-07
3.44988e-06
6.99963e-07
3.44071e-06
-9.15201e-08
3.41441e-06
-4.18372e-07
3.40874e-06
-1.86617e-07
3.41815e-06
3.50635e-07
3.42347e-06
2.75084e-07
3.43998e-06
3.27161e-07
3.44461e-06
3.25524e-07
3.43728e-06
4.11449e-08
3.43761e-06
5.79694e-08
3.43091e-06
9.5116e-08
3.42728e-06
3.27838e-08
3.42638e-06
7.45009e-08
3.41788e-06
8.09609e-08
3.41519e-06
8.82375e-08
3.41558e-06
1.42273e-07
1.7122e-07
3.41191e-06
3.58865e-06
9.24572e-08
3.56513e-06
-4.69714e-07
3.58313e-06
2.91256e-07
3.613e-06
6.70093e-07
3.60493e-06
-8.3446e-08
3.57805e-06
-3.91498e-07
3.5726e-06
-1.81166e-07
3.58217e-06
3.41066e-07
3.58712e-06
2.70136e-07
3.60391e-06
3.10366e-07
3.60858e-06
3.2086e-07
3.60092e-06
4.88012e-08
3.6016e-06
5.72939e-08
3.59511e-06
1.01603e-07
3.5905e-06
3.7391e-08
3.59002e-06
7.49824e-08
3.58181e-06
8.9167e-08
3.57834e-06
9.1708e-08
3.57992e-06
1.40698e-07
1.73985e-07
3.57715e-06
3.76049e-06
8.66682e-08
3.73578e-06
-4.45003e-07
3.75519e-06
2.71852e-07
3.7839e-06
6.41384e-07
3.77689e-06
-7.64344e-08
3.74965e-06
-3.64258e-07
3.74421e-06
-1.75729e-07
3.75418e-06
3.31098e-07
3.75854e-06
2.6577e-07
3.7756e-06
2.93304e-07
3.78043e-06
3.16036e-07
3.77224e-06
5.69926e-08
3.77336e-06
5.61743e-08
3.76716e-06
1.07806e-07
3.76147e-06
4.3074e-08
3.76137e-06
7.50858e-08
3.75373e-06
9.68041e-08
3.74931e-06
9.61278e-08
3.75173e-06
1.3828e-07
1.75337e-07
3.75038e-06
3.94053e-06
8.03222e-08
3.91466e-06
-4.1913e-07
3.93541e-06
2.51103e-07
3.96298e-06
6.13812e-07
3.95694e-06
-7.0394e-08
3.92961e-06
-3.36923e-07
3.92392e-06
-1.70039e-07
3.93453e-06
3.20481e-07
3.93815e-06
2.62151e-07
3.95539e-06
2.76064e-07
3.96058e-06
3.10845e-07
3.95164e-06
6.59349e-08
3.95322e-06
5.46e-08
3.94747e-06
1.13549e-07
3.94058e-06
4.99661e-08
3.94075e-06
7.49144e-08
3.93402e-06
1.0354e-07
3.92861e-06
1.0153e-07
3.93128e-06
1.35609e-07
1.74851e-07
3.93177e-06
4.12915e-06
7.34209e-08
4.10217e-06
-3.92152e-07
4.12416e-06
2.29121e-07
4.15067e-06
5.87296e-07
4.14544e-06
-6.51678e-08
4.11836e-06
-3.09843e-07
4.11211e-06
-1.63781e-07
4.12361e-06
3.08976e-07
4.1264e-06
2.59363e-07
4.14363e-06
2.58838e-07
4.14944e-06
3.05034e-07
4.1396e-06
7.57722e-08
4.14149e-06
5.27126e-08
4.1365e-06
1.18535e-07
4.12827e-06
5.81936e-08
4.12853e-06
7.46581e-08
4.123e-06
1.09072e-07
4.11681e-06
1.07721e-07
4.11902e-06
1.33401e-07
1.72411e-07
4.12146e-06
4.32674e-06
6.5979e-08
4.29876e-06
-3.64164e-07
4.3218e-06
2.06082e-07
4.3474e-06
5.6169e-07
4.34276e-06
-6.0527e-08
4.31637e-06
-2.83449e-07
4.30919e-06
-1.56606e-07
4.32177e-06
2.96396e-07
4.32376e-06
2.57372e-07
4.34069e-06
2.41917e-07
4.34737e-06
2.98349e-07
4.33662e-06
8.65269e-08
4.33852e-06
5.08092e-08
4.33464e-06
1.22409e-07
4.32513e-06
6.77046e-08
4.32509e-06
7.46971e-08
4.321e-06
1.13169e-07
4.31441e-06
1.14306e-07
4.31556e-06
1.32248e-07
1.68376e-07
4.3196e-06
4.53372e-06
5.80279e-08
4.50487e-06
-3.35307e-07
4.52872e-06
1.82227e-07
4.55363e-06
5.36781e-07
4.54928e-06
-5.61785e-08
4.52405e-06
-2.58213e-07
4.51563e-06
-1.48192e-07
4.52936e-06
2.82664e-07
4.53074e-06
2.55994e-07
4.54699e-06
2.25669e-07
4.55475e-06
2.90589e-07
4.5432e-06
9.80751e-08
4.5447e-06
4.9308e-08
4.54227e-06
1.24839e-07
4.5317e-06
7.82753e-08
4.53094e-06
7.54594e-08
4.52832e-06
1.15792e-07
4.52187e-06
1.20755e-07
4.5217e-06
1.32417e-07
1.63552e-07
4.52652e-06
4.75052e-06
4.96187e-08
4.72099e-06
-3.05769e-07
4.74533e-06
1.57879e-07
4.76984e-06
5.12277e-07
4.76542e-06
-5.17614e-08
4.74184e-06
-2.34629e-07
4.73193e-06
-1.38279e-07
4.74672e-06
2.67872e-07
4.74782e-06
2.54892e-07
4.763e-06
2.10487e-07
4.77196e-06
2.81632e-07
4.75985e-06
1.10185e-07
4.76053e-06
4.86311e-08
4.75972e-06
1.25644e-07
4.74851e-06
8.94853e-08
4.74658e-06
7.73871e-08
4.74535e-06
1.17028e-07
4.73949e-06
1.26609e-07
4.73813e-06
1.33777e-07
1.58826e-07
4.74286e-06
4.97759e-06
4.0825e-08
4.94761e-06
-2.75791e-07
4.97204e-06
1.33451e-07
4.99652e-06
4.87794e-07
4.99164e-06
-4.68744e-08
4.97017e-06
-2.13159e-07
4.95861e-06
-1.26725e-07
4.97418e-06
2.52308e-07
4.97547e-06
2.53597e-07
4.98924e-06
1.96715e-07
4.9994e-06
2.71474e-07
4.98705e-06
1.22533e-07
4.9865e-06
4.91842e-08
4.98738e-06
1.24759e-07
4.97599e-06
1.00883e-07
4.97262e-06
8.07516e-08
4.97254e-06
1.17111e-07
4.9676e-06
1.31553e-07
4.96546e-06
1.35915e-07
1.54851e-07
4.96943e-06
5.2154e-06
3.17437e-08
5.18528e-06
-2.4567e-07
5.20926e-06
1.0947e-07
5.2342e-06
4.62851e-07
5.22844e-06
-4.11115e-08
5.20945e-06
-1.94171e-07
5.19634e-06
-1.13617e-07
5.21216e-06
2.36492e-07
5.21413e-06
2.51624e-07
5.22628e-06
1.8457e-07
5.23751e-06
2.60243e-07
5.22529e-06
1.34755e-07
5.22321e-06
5.12642e-08
5.22566e-06
1.223e-07
5.21459e-06
1.11957e-07
5.20963e-06
8.57138e-08
5.2104e-06
1.16344e-07
5.20659e-06
1.35362e-07
5.20403e-06
1.38468e-07
1.51808e-07
5.20708e-06
5.46444e-06
2.24972e-08
5.43453e-06
-2.15764e-07
5.45739e-06
8.66081e-08
5.48339e-06
4.36856e-07
5.47639e-06
-3.41178e-08
5.46009e-06
-1.77863e-07
5.44584e-06
-9.93697e-08
5.46121e-06
2.21124e-07
5.46422e-06
2.48607e-07
5.47469e-06
1.74098e-07
5.48676e-06
2.48178e-07
5.47503e-06
1.46483e-07
5.47123e-06
5.50688e-08
5.47499e-06
1.18535e-07
5.4648e-06
1.22145e-07
5.45818e-06
9.23419e-08
5.45941e-06
1.15106e-07
5.45696e-06
1.37811e-07
5.45422e-06
1.4121e-07
1.49586e-07
5.45644e-06
5.72522e-06
1.32328e-08
5.69595e-06
-1.86491e-07
5.71685e-06
6.57116e-08
5.74458e-06
4.09117e-07
5.73611e-06
-2.5648e-08
5.72245e-06
-1.64196e-07
5.7078e-06
-8.47209e-08
5.722e-06
2.06926e-07
5.72617e-06
2.4443e-07
5.7351e-06
1.65174e-07
5.74767e-06
2.35601e-07
5.73678e-06
1.5738e-07
5.73114e-06
6.07045e-08
5.73583e-06
1.13852e-07
5.72708e-06
1.30886e-07
5.71892e-06
1.00502e-07
5.72007e-06
1.13955e-07
5.71924e-06
1.38646e-07
5.71652e-06
1.43932e-07
1.48068e-07
5.71804e-06
5.9983e-06
4.12106e-09
5.97014e-06
-1.58323e-07
5.98803e-06
4.7816e-08
6.01827e-06
3.7888e-07
6.00827e-06
-1.56506e-08
5.99677e-06
-1.5269e-07
5.98277e-06
-7.07269e-08
5.99534e-06
1.9436e-07
6.00051e-06
2.39262e-07
6.00806e-06
1.57621e-07
6.0208e-06
2.22859e-07
6.011e-06
1.67187e-07
6.00354e-06
6.81619e-08
6.00866e-06
1.08727e-07
6.00189e-06
1.37658e-07
5.99253e-06
1.09859e-07
5.99299e-06
1.13503e-07
5.99386e-06
1.3777e-07
5.99153e-06
1.46265e-07
1.47267e-07
5.99233e-06
6.28426e-06
-4.65305e-09
6.25771e-06
-1.31769e-07
6.27172e-06
3.38088e-08
6.30486e-06
3.45732e-07
6.29358e-06
-4.36957e-09
6.28343e-06
-1.42541e-07
6.2711e-06
-5.83969e-08
6.28198e-06
1.83479e-07
6.28772e-06
2.33525e-07
6.29407e-06
1.51271e-07
6.30664e-06
2.10284e-07
6.29813e-06
1.75704e-07
6.289e-06
7.72846e-08
6.29404e-06
1.03695e-07
6.28964e-06
1.4206e-07
6.27967e-06
1.19828e-07
6.27887e-06
1.14297e-07
6.28125e-06
1.35392e-07
6.27985e-06
1.47662e-07
1.47193e-07
6.27993e-06
6.58371e-06
-1.28949e-08
6.5593e-06
-1.07362e-07
6.56923e-06
2.38872e-08
6.60475e-06
3.10208e-07
6.59285e-06
7.52865e-09
6.58301e-06
-1.32703e-07
6.57283e-06
-4.82123e-08
6.58201e-06
1.74298e-07
6.58786e-06
2.27671e-07
6.59326e-06
1.45874e-07
6.60557e-06
1.9798e-07
6.59859e-06
1.82676e-07
6.58816e-06
8.77172e-08
6.59261e-06
9.92478e-08
6.59073e-06
1.43938e-07
6.58091e-06
1.29653e-07
6.57856e-06
1.16643e-07
6.58188e-06
1.3207e-07
6.58197e-06
1.47572e-07
1.47626e-07
6.58154e-06
6.89731e-06
-2.04129e-08
6.87558e-06
-8.56384e-08
6.88155e-06
1.79212e-08
6.91837e-06
2.7339e-07
6.90679e-06
1.91056e-08
6.89624e-06
-1.22151e-07
6.88803e-06
-4.00027e-08
6.89542e-06
1.66904e-07
6.90136e-06
2.2174e-07
6.90597e-06
1.41254e-07
6.91804e-06
1.85912e-07
6.91295e-06
1.87771e-07
6.90171e-06
9.89519e-08
6.9051e-06
9.58584e-08
6.9057e-06
1.43341e-07
6.89676e-06
1.38592e-07
6.89291e-06
1.20496e-07
6.89636e-06
1.28615e-07
6.89824e-06
1.45688e-07
1.48051e-07
6.89782e-06
7.22576e-06
-2.70334e-08
7.20723e-06
-6.71102e-08
7.20947e-06
1.5675e-08
7.24637e-06
2.36498e-07
7.23594e-06
2.95307e-08
7.22393e-06
-1.1014e-07
7.21807e-06
-3.41378e-08
7.22417e-06
1.60799e-07
7.22968e-06
2.16228e-07
7.23341e-06
1.37529e-07
7.24501e-06
1.74312e-07
7.24196e-06
1.90818e-07
7.23043e-06
1.10483e-07
7.23237e-06
9.39219e-08
7.23511e-06
1.406e-07
7.22778e-06
1.4592e-07
7.22269e-06
1.25585e-07
7.22554e-06
1.25768e-07
7.22909e-06
1.42138e-07
1.47793e-07
7.22935e-06
7.56979e-06
-3.25946e-08
7.55497e-06
-5.22968e-08
7.55375e-06
1.68988e-08
7.58958e-06
2.00665e-07
7.58108e-06
3.80356e-08
7.56736e-06
-9.64229e-08
7.56351e-06
-3.0286e-08
7.56924e-06
1.55067e-07
7.57396e-06
2.11505e-07
7.57644e-06
1.35048e-07
7.58742e-06
1.63332e-07
7.58647e-06
1.91774e-07
7.5751e-06
1.21854e-07
7.57529e-06
9.37328e-08
7.57966e-06
1.36223e-07
7.57443e-06
1.51151e-07
7.56864e-06
1.3137e-07
7.57037e-06
1.24041e-07
7.57501e-06
1.37497e-07
1.46243e-07
7.57656e-06
7.9302e-06
-3.69802e-08
7.91954e-06
-4.16392e-08
7.91524e-06
2.11978e-08
7.94883e-06
1.67075e-07
7.94332e-06
4.35444e-08
7.92886e-06
-8.19656e-08
7.92645e-06
-2.7872e-08
7.93247e-06
1.49046e-07
7.93498e-06
2.08995e-07
7.93573e-06
1.34304e-07
7.94613e-06
1.5293e-07
7.94723e-06
1.90673e-07
7.93651e-06
1.32569e-07
7.9348e-06
9.54516e-08
7.94012e-06
1.30897e-07
7.93736e-06
1.53912e-07
7.93144e-06
1.37295e-07
7.93184e-06
1.23642e-07
7.93684e-06
1.32496e-07
1.43162e-07
7.93992e-06
8.30781e-06
-4.0105e-08
8.30144e-06
-3.52782e-08
8.29498e-06
2.766e-08
8.32531e-06
1.36745e-07
8.32398e-06
4.48814e-08
8.31014e-06
-6.81249e-08
8.30753e-06
-2.52615e-08
8.31136e-06
1.45208e-07
8.31277e-06
2.07592e-07
8.31229e-06
1.34777e-07
8.32194e-06
1.43279e-07
8.32505e-06
1.87569e-07
8.31542e-06
1.422e-07
8.31189e-06
9.89801e-08
8.31736e-06
1.25425e-07
8.31715e-06
1.54116e-07
8.31177e-06
1.42682e-07
8.31085e-06
1.24557e-07
8.31556e-06
1.27787e-07
1.38713e-07
8.32001e-06
8.70349e-06
-4.19286e-08
8.70115e-06
-3.2939e-08
8.6936e-06
3.52081e-08
8.72124e-06
1.09105e-07
8.7213e-06
4.48219e-08
8.70025e-06
-4.70789e-08
8.69544e-06
-2.0453e-08
8.70465e-06
1.36005e-07
8.70862e-06
2.03623e-07
8.70735e-06
1.36045e-07
8.71581e-06
1.34819e-07
8.72069e-06
1.82685e-07
8.71259e-06
1.50303e-07
8.70763e-06
1.0394e-07
8.71248e-06
1.20576e-07
8.71457e-06
1.5203e-07
8.71034e-06
1.46909e-07
8.70836e-06
1.26536e-07
8.71224e-06
1.23903e-07
1.33382e-07
8.71757e-06
9.11818e-06
-4.24863e-08
9.11932e-06
-3.40816e-08
9.11105e-06
4.34778e-08
9.13169e-06
8.846e-08
9.13414e-06
4.23759e-08
9.11559e-06
-2.85288e-08
9.10922e-06
-1.40818e-08
9.11914e-06
1.26088e-07
9.12402e-06
1.98738e-07
9.12183e-06
1.38238e-07
9.12864e-06
1.28005e-07
9.13494e-06
1.76387e-07
9.1287e-06
1.56542e-07
9.12281e-06
1.09834e-07
9.12651e-06
1.16877e-07
9.13035e-06
1.48181e-07
9.12779e-06
1.49469e-07
9.12522e-06
1.29108e-07
9.128e-06
1.21121e-07
1.27742e-07
9.13364e-06
9.55285e-06
-4.18719e-08
9.55648e-06
-3.77115e-08
9.54879e-06
5.11628e-08
9.56442e-06
7.2832e-08
9.5695e-06
3.72946e-08
9.55261e-06
-1.16354e-08
9.54366e-06
-5.1339e-09
9.5531e-06
1.16648e-07
9.55934e-06
1.92499e-07
9.55666e-06
1.40919e-07
9.56159e-06
1.23074e-07
9.56881e-06
1.69166e-07
9.5646e-06
1.6075e-07
9.55831e-06
1.16127e-07
9.56065e-06
1.14534e-07
9.56557e-06
1.43264e-07
9.56489e-06
1.50146e-07
9.5623e-06
1.31697e-07
9.56392e-06
1.19503e-07
1.22376e-07
9.56929e-06
1.00085e-05
-4.02455e-08
1.00139e-05
-4.30568e-08
1.0008e-05
5.70063e-08
1.00189e-05
6.19613e-08
1.00254e-05
3.07402e-08
1.00109e-05
2.93352e-09
9.99966e-06
6.07443e-09
1.00076e-05
1.08673e-07
1.00152e-05
1.84935e-07
1.00127e-05
1.43378e-07
1.00158e-05
1.20042e-07
1.00233e-05
1.6159e-07
1.00211e-05
1.62955e-07
1.0015e-05
1.22286e-07
1.00159e-05
1.13565e-07
1.00213e-05
1.37919e-07
1.00224e-05
1.49009e-07
1.00204e-05
1.33743e-07
1.0021e-05
1.18848e-07
1.17722e-07
1.00257e-05
1.04863e-05
-3.78632e-08
1.04926e-05
-4.94092e-08
1.04894e-05
6.01812e-08
1.04957e-05
5.57195e-08
1.05029e-05
2.35366e-08
1.04911e-05
1.46994e-08
1.04783e-05
1.89124e-08
1.0484e-05
1.02945e-07
1.04926e-05
1.76385e-07
1.04908e-05
1.45122e-07
1.04922e-05
1.18633e-07
1.04996e-05
1.54183e-07
1.04993e-05
1.63269e-07
1.04937e-05
1.27896e-07
1.04935e-05
1.13752e-07
1.04987e-05
1.32688e-07
1.05014e-05
1.46308e-07
1.05003e-05
1.34886e-07
1.05004e-05
1.18739e-07
1.14034e-07
1.05041e-05
1.09872e-05
-3.50111e-08
1.09937e-05
-5.58987e-08
1.09939e-05
5.9925e-08
1.0996e-05
5.36257e-08
1.10025e-05
1.7053e-08
1.09939e-05
2.33277e-08
1.09805e-05
3.2305e-08
1.09836e-05
9.97968e-08
1.09925e-05
1.67506e-07
1.09918e-05
1.45848e-07
1.0992e-05
1.18393e-07
1.09989e-05
1.47305e-07
1.10002e-05
1.61963e-07
1.09954e-05
1.32655e-07
1.09944e-05
1.14831e-07
1.09991e-05
1.27975e-07
1.1003e-05
1.42388e-07
1.10029e-05
1.34946e-07
1.10029e-05
1.18761e-07
1.11235e-07
1.10057e-05
1.15124e-05
-3.19999e-08
1.15181e-05
-6.16522e-08
1.15221e-05
5.598e-08
1.15207e-05
5.49613e-08
1.15247e-05
1.30438e-08
1.15196e-05
2.84918e-08
1.15071e-05
4.47575e-08
1.15079e-05
9.90468e-08
1.15162e-05
1.59129e-07
1.15166e-05
1.45455e-07
1.15161e-05
1.18873e-07
1.15222e-05
1.41213e-07
1.15249e-05
1.59319e-07
1.15212e-05
1.36346e-07
1.15195e-05
1.1648e-07
1.15235e-05
1.23984e-07
1.15283e-05
1.37653e-07
1.15294e-05
1.33851e-07
1.15295e-05
1.18611e-07
1.09049e-07
1.15317e-05
1.20629e-05
-2.91021e-08
1.20672e-05
-6.5929e-08
1.20742e-05
4.89862e-08
1.20705e-05
5.86342e-08
1.20708e-05
1.27605e-08
1.20691e-05
3.02274e-08
1.20591e-05
5.47437e-08
1.20579e-05
1.00206e-07
1.20652e-05
1.51881e-07
1.20665e-05
1.44171e-07
1.20656e-05
1.1968e-07
1.20709e-05
1.35973e-07
1.20746e-05
1.55631e-07
1.20721e-05
1.38816e-07
1.20702e-05
1.18381e-07
1.20734e-05
1.20792e-07
1.20785e-05
1.3253e-07
1.20807e-05
1.31633e-07
1.20812e-05
1.18112e-07
1.07163e-07
1.20831e-05
1.264e-05
-2.65031e-08
1.26419e-05
-6.7823e-08
1.26502e-05
4.06328e-08
1.26464e-05
6.25033e-08
1.26432e-05
1.58964e-08
1.26437e-05
2.97846e-08
1.26372e-05
6.1261e-08
1.26349e-05
1.02421e-07
1.26407e-05
1.46131e-07
1.26425e-05
1.42391e-07
1.26417e-05
1.20478e-07
1.26461e-05
1.31544e-07
1.26505e-05
1.512e-07
1.26494e-05
1.40002e-07
1.26475e-05
1.20242e-07
1.26499e-05
1.18384e-07
1.2655e-05
1.27393e-07
1.26582e-05
1.28425e-07
1.26592e-05
1.17111e-07
1.05386e-07
1.2661e-05
1.32447e-05
-2.42892e-08
1.32433e-05
-6.64469e-08
1.32523e-05
3.16303e-08
1.325e-05
6.48887e-08
1.32445e-05
2.1405e-08
1.32451e-05
2.91292e-08
1.32422e-05
6.42134e-08
1.324e-05
1.04538e-07
1.32442e-05
1.41943e-07
1.32461e-05
1.40525e-07
1.32454e-05
1.21139e-07
1.32491e-05
1.27832e-07
1.3254e-05
1.46321e-07
1.32541e-05
1.39929e-07
1.32526e-05
1.21731e-07
1.32543e-05
1.16648e-07
1.32592e-05
1.22539e-07
1.32632e-05
1.24438e-07
1.32648e-05
1.15496e-07
1.03642e-07
1.32665e-05
1.38784e-05
-2.25374e-08
1.38752e-05
-6.32776e-08
1.38839e-05
2.29282e-08
1.38832e-05
6.56805e-08
1.38759e-05
2.86087e-08
1.38752e-05
2.9853e-08
1.38751e-05
6.4339e-08
1.38742e-05
1.05484e-07
1.38771e-05
1.38997e-07
1.38788e-05
1.38852e-07
1.38782e-05
1.21696e-07
1.38813e-05
1.2475e-07
1.38864e-05
1.412e-07
1.38876e-05
1.38717e-07
1.38867e-05
1.22618e-07
1.38881e-05
1.15338e-07
1.38924e-05
1.18199e-07
1.38969e-05
1.19937e-07
1.38992e-05
1.1322e-07
1.01859e-07
1.3901e-05
1.45423e-05
-2.12171e-08
1.4537e-05
-5.79809e-08
1.45454e-05
1.45529e-08
1.45468e-05
6.43251e-08
1.45389e-05
3.65052e-08
1.45361e-05
3.26557e-08
1.45374e-05
6.30036e-08
1.45382e-05
1.04676e-07
1.45406e-05
1.36595e-07
1.4542e-05
1.37488e-07
1.45415e-05
1.22222e-07
1.4544e-05
1.22243e-07
1.45491e-05
1.36025e-07
1.45514e-05
1.36482e-07
1.45512e-05
1.2284e-07
1.45523e-05
1.14151e-07
1.45561e-05
1.14446e-07
1.45608e-05
1.15259e-07
1.45637e-05
1.10263e-07
9.99478e-08
1.45656e-05
1.52379e-05
-2.02554e-08
1.52317e-05
-5.17921e-08
1.52386e-05
7.68434e-09
1.52418e-05
6.10759e-08
1.52343e-05
4.40235e-08
1.52295e-05
3.74531e-08
1.52308e-05
6.16975e-08
1.52334e-05
1.02102e-07
1.52361e-05
1.33905e-07
1.52372e-05
1.36409e-07
1.52367e-05
1.22748e-07
1.52386e-05
1.2027e-07
1.52436e-05
1.31068e-07
1.52468e-05
1.33291e-07
1.52473e-05
1.22364e-07
1.52485e-05
1.12908e-07
1.52518e-05
1.1113e-07
1.52563e-05
1.10745e-07
1.52599e-05
1.06689e-07
9.77876e-08
1.52621e-05
1.59666e-05
-1.9502e-08
1.59601e-05
-4.53621e-08
1.5965e-05
2.82628e-09
1.59696e-05
5.64498e-08
1.59634e-05
5.02568e-08
1.59572e-05
4.36419e-08
1.59574e-05
6.1512e-08
1.59612e-05
9.83361e-08
1.59647e-05
1.30348e-07
1.59658e-05
1.35301e-07
1.59653e-05
1.23248e-07
1.59668e-05
1.18781e-07
1.59714e-05
1.26513e-07
1.59753e-05
1.29398e-07
1.59766e-05
1.21068e-07
1.59779e-05
1.11539e-07
1.5981e-05
1.08062e-07
1.59852e-05
1.06552e-07
1.59891e-05
1.02749e-07
9.52213e-08
1.59917e-05
1.67299e-05
-1.87853e-08
1.67233e-05
-3.88241e-08
1.67262e-05
-1.56767e-11
1.67317e-05
5.0973e-08
1.67273e-05
5.4673e-08
1.67205e-05
5.0355e-08
1.67192e-05
6.28156e-08
1.67232e-05
9.43426e-08
1.67277e-05
1.25827e-07
1.67294e-05
1.33647e-07
1.6729e-05
1.23652e-07
1.67301e-05
1.17696e-07
1.67342e-05
1.22392e-07
1.67384e-05
1.25198e-07
1.67406e-05
1.18891e-07
1.67422e-05
1.0991e-07
1.67451e-05
1.05147e-07
1.67491e-05
1.02607e-07
1.67531e-05
9.87563e-08
9.21883e-08
1.67561e-05
1.75295e-05
-1.79754e-08
1.75238e-05
-3.30915e-08
1.75245e-05
-6.67516e-10
1.75297e-05
4.56977e-08
1.75272e-05
5.719e-08
1.75209e-05
5.67302e-08
1.75183e-05
6.53925e-08
1.75216e-05
9.10444e-08
1.75268e-05
1.20607e-07
1.75294e-05
1.31089e-07
1.75293e-05
1.23749e-07
1.75301e-05
1.16853e-07
1.75337e-05
1.18767e-07
1.7538e-05
1.2091e-07
1.75408e-05
1.16051e-07
1.75429e-05
1.0783e-07
1.75458e-05
1.02324e-07
1.75496e-05
9.88001e-08
1.75535e-05
9.48571e-08
8.8806e-08
1.75568e-05
1.83673e-05
-1.69769e-08
1.83624e-05
-2.81581e-08
1.83615e-05
2.45434e-10
1.83658e-05
4.13586e-08
1.83649e-05
5.8082e-08
1.83596e-05
6.20953e-08
1.83562e-05
6.8773e-08
1.83583e-05
8.89557e-08
1.83637e-05
1.15192e-07
1.83672e-05
1.27625e-07
1.83677e-05
1.23197e-07
1.83685e-05
1.1607e-07
1.83716e-05
1.15654e-07
1.83759e-05
1.16596e-07
1.83792e-05
1.12824e-07
1.83817e-05
1.05266e-07
1.83846e-05
9.94474e-08
1.83883e-05
9.51232e-08
1.83921e-05
9.10137e-08
8.52685e-08
1.83957e-05
1.92452e-05
-1.57772e-08
1.9241e-05
-2.39612e-08
1.92391e-05
2.13249e-09
1.92421e-05
3.84115e-08
1.92423e-05
5.78781e-08
1.92383e-05
6.60948e-08
1.92346e-05
7.24238e-08
1.92355e-05
8.80444e-08
1.92405e-05
1.10213e-07
1.92446e-05
1.23483e-07
1.92461e-05
1.21754e-07
1.9247e-05
1.15169e-07
1.92497e-05
1.12927e-07
1.92539e-05
1.12434e-07
1.92575e-05
1.0924e-07
1.92604e-05
1.02364e-07