/*--------------------------------*- C++ -*----------------------------------*\
| =========                 |                                                 |
| \\      /  F ield         | OpenFOAM: The Open Source CFD Toolbox           |
|  \\    /   O peration     | Version:  3.0.1                                 |
|   \\  /    A nd           | Web:      www.OpenFOAM.org                      |
|    \\/     M anipulation  |                                                 |
\*---------------------------------------------------------------------------*/
FoamFile
{
    version     2.0;
    format      ascii;
    class       volVectorField;
    location    "3.7";
    object      U;
}
// * * * * * * * * * * * * * * * * * * * * * * * * * * * * * * * * * * * * * //

dimensions      [0 1 -1 0 0 0 0];

internalField   nonuniform List<vector> 
9600
(
(0.761402 -4.13458e-05 0)
(1.21908 -0.00433947 0)
(0.897612 0.00970175 0)
(1.21707 0.00684278 0)
(0.609409 -0.00892978 0)
(1.22642 -0.00256262 0)
(0.855512 -0.00393509 0)
(1.15324 0.00977353 0)
(0.85635 0.00460994 0)
(1.14556 0.0089813 0)
(0.79984 0.0062955 0)
(1.13574 -0.00294142 0)
(0.788706 -0.000752282 0)
(1.15484 0.00374436 0)
(0.818391 -0.000111354 0)
(1.12698 0.00472585 0)
(0.852519 -0.000328879 0)
(1.11728 0.00362982 0)
(0.860691 -0.000345129 0)
(1.11046 0.00118553 0)
(0.771421 -2.89671e-05 0)
(1.20761 -0.00513262 0)
(0.902025 0.00916974 0)
(1.20758 0.00988747 0)
(0.638691 -0.00927469 0)
(1.20985 -0.00519855 0)
(0.869834 -0.00355397 0)
(1.14432 0.010151 0)
(0.875689 0.00449421 0)
(1.13055 0.00993204 0)
(0.833513 0.00613195 0)
(1.10848 -0.00235265 0)
(0.829186 -0.00167918 0)
(1.11492 0.00342004 0)
(0.876035 0.000251734 0)
(1.07107 0.00400727 0)
(0.928073 -3.12466e-05 0)
(1.03811 0.00282552 0)
(0.964167 0.000458088 0)
(0.996275 0.00118036 0)
(0.792097 -1.94334e-05 0)
(1.18403 -0.00583603 0)
(0.912368 0.00905703 0)
(1.18948 0.0121826 0)
(0.693207 -0.00973802 0)
(1.17586 -0.00688341 0)
(0.898687 -0.00317477 0)
(1.12207 0.0103022 0)
(0.910682 0.00452717 0)
(1.10007 0.0107334 0)
(0.887663 0.00628365 0)
(1.06556 -0.0020693 0)
(0.889679 -0.00192097 0)
(1.05892 0.00275063 0)
(0.9402 0.00102845 0)
(1.01795 0.00288864 0)
(0.976552 0.000777534 0)
(0.999473 0.00203141 0)
(0.989132 0.00170689 0)
(0.984391 0.00168886 0)
(0.822446 3.97799e-05 0)
(1.14971 -0.00644067 0)
(0.927853 0.00890055 0)
(1.16409 0.0139367 0)
(0.765769 -0.0097518 0)
(1.12799 -0.00846584 0)
(0.93524 -0.00288969 0)
(1.09031 0.0102626 0)
(0.948462 0.00476628 0)
(1.0633 0.0110596 0)
(0.937877 0.00671348 0)
(1.02578 -0.00200077 0)
(0.938272 -0.00181849 0)
(1.01622 0.00192289 0)
(0.975775 0.00162887 0)
(0.995187 0.00230978 0)
(0.989491 0.00105394 0)
(0.993324 0.00190512 0)
(0.989357 0.00209842 0)
(0.987558 0.00226514 0)
(0.859168 0.000156172 0)
(1.10911 -0.00700018 0)
(0.945851 0.00860445 0)
(1.13425 0.0152719 0)
(0.842325 -0.00941477 0)
(1.07636 -0.00988491 0)
(0.968349 -0.00275382 0)
(1.05829 0.0101914 0)
(0.977788 0.00512481 0)
(1.03245 0.0111537 0)
(0.970518 0.00723381 0)
(1.00204 -0.00192199 0)
(0.964764 -0.00165287 0)
(0.994316 0.0012877 0)
(0.987201 0.00189948 0)
(0.990252 0.00208176 0)
(0.990977 0.0011388 0)
(0.992787 0.00186937 0)
(0.990068 0.00242102 0)
(0.987308 0.00274751 0)
(0.897257 0.000324971 0)
(1.06886 -0.00748176 0)
(0.962737 0.0082591 0)
(1.10451 0.016101 0)
(0.908963 -0.00878388 0)
(1.03254 -0.0109483 0)
(0.98975 -0.00277066 0)
(1.03374 0.0101557 0)
(0.995537 0.0055074 0)
(1.0137 0.0112061 0)
(0.986979 0.00767606 0)
(0.994146 -0.00176974 0)
(0.976488 -0.00148374 0)
(0.986173 0.000906052 0)
(0.988733 0.0019043 0)
(0.98985 0.00191749 0)
(0.991652 0.00121616 0)
(0.992529 0.00180842 0)
(0.991216 0.00270364 0)
(0.987294 0.00327868 0)
(0.931599 0.000531349 0)
(1.03542 -0.00784405 0)
(0.975362 0.00786324 0)
(1.07925 0.0164631 0)
(0.958324 -0.00795385 0)
(1.00354 -0.0115944 0)
(0.99813 -0.00295676 0)
(1.01845 0.0101171 0)
(1.0046 0.00584657 0)
(1.00588 0.0112623 0)
(0.994602 0.00798533 0)
(0.995357 -0.00157435 0)
(0.982526 -0.00124377 0)
(0.984783 0.000678456 0)
(0.988674 0.00177768 0)
(0.990248 0.00174802 0)
(0.992877 0.00125018 0)
(0.993365 0.00177598 0)
(0.992331 0.00294426 0)
(0.988329 0.00387277 0)
(0.958688 0.00074653 0)
(1.01251 -0.00806772 0)
(0.98247 0.00740703 0)
(1.06031 0.0164648 0)
(0.990106 -0.0070494 0)
(0.989594 -0.0118556 0)
(0.997694 -0.00326956 0)
(1.0098 0.0100113 0)
(1.00872 0.00610559 0)
(1.00463 0.0113152 0)
(0.999012 0.00818778 0)
(0.999705 -0.00137097 0)
(0.987319 -0.000916208 0)
(0.986575 0.000536662 0)
(0.989585 0.00164219 0)
(0.99123 0.00156089 0)
(0.994341 0.00121061 0)
(0.994973 0.00181534 0)
(0.993823 0.00316279 0)
(0.989954 0.0044844 0)
(0.977486 0.000939213 0)
(1.00006 -0.00815433 0)
(0.985022 0.00691637 0)
(1.04681 0.0162171 0)
(1.00793 -0.0061692 0)
(0.986391 -0.0118146 0)
(0.99406 -0.00361743 0)
(1.00454 0.00980423 0)
(1.01007 0.00626869 0)
(1.00583 0.0113377 0)
(1.00242 0.00832523 0)
(1.00403 -0.00117537 0)
(0.99181 -0.000538059 0)
(0.989726 0.000473554 0)
(0.991528 0.00153656 0)
(0.992663 0.00137298 0)
(0.995773 0.00112588 0)
(0.996538 0.00191074 0)
(0.995415 0.00334299 0)
(0.991721 0.00507588 0)
(0.989065 0.00108884 0)
(0.995231 -0.00812548 0)
(0.985232 0.00643691 0)
(1.03671 0.0158101 0)
(1.01633 -0.00537567 0)
(0.988723 -0.0115749 0)
(0.991038 -0.00391488 0)
(1.00084 0.00951305 0)
(1.00964 0.00634096 0)
(1.00698 0.0113013 0)
(1.00503 0.00842172 0)
(1.00716 -0.000996017 0)
(0.995745 -0.000137661 0)
(0.993129 0.000479906 0)
(0.993943 0.00145257 0)
(0.994246 0.00123247 0)
(0.99701 0.00102584 0)
(0.997652 0.00203103 0)
(0.996643 0.00348507 0)
(0.993255 0.0056367 0)
(0.995507 0.00119006 0)
(0.994547 -0.00801498 0)
(0.985135 0.00600994 0)
(1.02842 0.0153148 0)
(1.01917 -0.00469637 0)
(0.992821 -0.011232 0)
(0.989856 -0.00412134 0)
(0.998097 0.00918749 0)
(1.00818 0.00634807 0)
(1.00713 0.0111919 0)
(1.0066 0.00848482 0)
(1.00893 -0.000836836 0)
(0.998836 0.000253843 0)
(0.99618 0.000532563 0)
(0.996359 0.00138538 0)
(0.99579 0.00117593 0)
(0.998031 0.000917727 0)
(0.998336 0.00217305 0)
(0.997369 0.00361919 0)
(0.994372 0.00614233 0)
(0.99885 0.0012488 0)
(0.995399 -0.00785717 0)
(0.985733 0.00565963 0)
(1.02133 0.0147841 0)
(1.01918 -0.00413516 0)
(0.996747 -0.0108546 0)
(0.990127 -0.00423388 0)
(0.996174 0.00887252 0)
(1.00643 0.00632173 0)
(1.0064 0.0110148 0)
(1.00721 0.00851635 0)
(1.00956 -0.000699937 0)
(1.00103 0.000604333 0)
(0.998652 0.000615541 0)
(0.998515 0.00132988 0)
(0.997223 0.00120086 0)
(0.998906 0.000817004 0)
(0.998779 0.00234752 0)
(0.997735 0.00377475 0)
(0.995109 0.00655064 0)
(1.00055 0.0012759 0)
(0.99642 -0.00767893 0)
(0.98706 0.00538923 0)
(1.01546 0.0142532 0)
(1.01802 -0.00368205 0)
(0.999817 -0.0104813 0)
(0.991044 -0.00426547 0)
(0.994923 0.00858939 0)
(1.00492 0.00628595 0)
(1.00533 0.0107848 0)
(1.00719 0.00852084 0)
(1.00948 -0.000585845 0)
(1.00247 0.000898995 0)
(1.00052 0.000720132 0)
(1.00028 0.00127062 0)
(0.998489 0.00128833 0)
(0.999687 0.000746751 0)
(0.999133 0.00254681 0)
(0.997941 0.00397069 0)
(0.995608 0.00684404 0)
(1.00144 0.00128166 0)
(0.997139 -0.00749584 0)
(0.988711 0.00518671 0)
(1.01098 0.0137394 0)
(1.01662 -0.0033187 0)
(1.00195 -0.0101271 0)
(0.992022 -0.00423694 0)
(0.994141 0.00834068 0)
(1.00386 0.00625102 0)
(1.00436 0.0105186 0)
(1.00694 0.00850302 0)
(1.0091 -0.000487479 0)
(1.00336 0.00113066 0)
(1.00185 0.000842017 0)
(1.00162 0.00119787 0)
(0.999506 0.00142416 0)
(1.00036 0.000719509 0)
(0.999447 0.00274747 0)
(0.998105 0.00421981 0)
(0.995997 0.00704385 0)
(1.00193 0.00127397 0)
(0.997515 -0.00731452 0)
(0.990297 0.00503341 0)
(1.00787 0.0132462 0)
(1.01537 -0.00302334 0)
(1.0033 -0.00979141 0)
(0.992804 -0.00416702 0)
(0.993642 0.00811874 0)
(1.00324 0.00621704 0)
(1.00371 0.0102285 0)
(1.0067 0.0084682 0)
(1.0087 -0.000393983 0)
(1.00393 0.00129961 0)
(1.00274 0.000981071 0)
(1.00254 0.00111276 0)
(1.00022 0.00159347 0)
(1.00087 0.00074202 0)
(0.999709 0.00292454 0)
(0.99826 0.00452383 0)
(0.996338 0.00718518 0)
(1.0022 0.00125832 0)
(0.997646 -0.0071362 0)
(0.991614 0.0049097 0)
(1.00591 0.0127708 0)
(1.01442 -0.002775 0)
(1.00407 -0.00946671 0)
(0.993354 -0.00406875 0)
(0.993312 0.00791304 0)
(1.00293 0.00617908 0)
(1.00339 0.00992369 0)
(1.00656 0.00841914 0)
(1.00841 -0.000294262 0)
(1.00432 0.00141667 0)
(1.0033 0.00113835 0)
(1.00312 0.00102009 0)
(1.00064 0.00177758 0)
(1.0012 0.000821891 0)
(0.999901 0.00306377 0)
(0.998397 0.00486747 0)
(0.996647 0.00729307 0)
(1.00235 0.00123788 0)
(0.997643 -0.00695867 0)
(0.992619 0.00479889 0)
(1.00479 0.0123082 0)
(1.01374 -0.00255514 0)
(1.00444 -0.00914603 0)
(0.993732 -0.00395446 0)
(0.9931 0.00771684 0)
(1.00281 0.00613133 0)
(1.00332 0.00960859 0)
(1.00649 0.00835683 0)
(1.00824 -0.000179968 0)
(1.00461 0.00149506 0)
(1.00362 0.00131459 0)
(1.00346 0.000928562 0)
(1.00082 0.00195636 0)
(1.00137 0.000961959 0)
(1.00003 0.00317088 0)
(0.998511 0.00522645 0)
(0.996926 0.00738621 0)
(1.00242 0.0012143 0)
(0.997595 -0.00677888 0)
(0.993354 0.00468933 0)
(1.00421 0.0118535 0)
(1.01326 -0.00235196 0)
(1.00457 -0.00882148 0)
(0.994016 -0.00383328 0)
(0.992989 0.0075272 0)
(1.00279 0.00607156 0)
(1.00338 0.00928269 0)
(1.00644 0.00828361 0)
(1.00813 -5.04093e-05 0)
(1.00485 0.00154441 0)
(1.00379 0.00151065 0)
(1.00363 0.000852997 0)
(1.00087 0.00211248 0)
(1.00142 0.00115703 0)
(1.00014 0.00325595 0)
(0.998614 0.00557555 0)
(0.997184 0.0074835 0)
(1.00244 0.00118832 0)
(0.997557 -0.00659419 0)
(0.993891 0.0045733 0)
(1.00392 0.0114042 0)
(1.01288 -0.00215967 0)
(1.00459 -0.00848718 0)
(0.994265 -0.00371021 0)
(0.992972 0.00734141 0)
(1.00281 0.00599806 0)
(1.0035 0.00895083 0)
(1.00635 0.00819905 0)
(1.00805 9.49977e-05 0)
(1.00504 0.00157137 0)
(1.00387 0.00172098 0)
(1.00371 0.000806869 0)
(1.00085 0.00224635 0)
(1.00142 0.00139988 0)
(1.00025 0.00332677 0)
(0.998725 0.00589391 0)
(0.997435 0.00760229 0)
(1.00241 0.00115967 0)
(0.997563 -0.00640189 0)
(0.994295 0.004446 0)
(1.00378 0.0109592 0)
(1.01253 -0.00197604 0)
(1.00457 -0.00814037 0)
(0.994512 -0.00358954 0)
(0.993041 0.00715855 0)
(1.00284 0.0059104 0)
(1.00364 0.00861698 0)
(1.0062 0.00810414 0)
(1.00796 0.00025367 0)
(1.00519 0.00158671 0)
(1.0039 0.0019358 0)
(1.00372 0.000793292 0)
(1.00083 0.00236413 0)
(1.00138 0.00167822 0)
(1.00041 0.00339103 0)
(0.998864 0.00616811 0)
(0.997695 0.00775188 0)
(1.00234 0.00112765 0)
(0.997623 -0.00619951 0)
(0.994615 0.00430445 0)
(1.00369 0.0105207 0)
(1.01216 -0.00180225 0)
(1.00456 -0.00777929 0)
(0.99477 -0.00347483 0)
(0.993187 0.00698036 0)
(1.00284 0.00581163 0)
(1.00378 0.0082792 0)
(1.00599 0.00800324 0)
(1.00785 0.000420743 0)
(1.00531 0.00160084 0)
(1.00391 0.00214805 0)
(1.00371 0.000807056 0)
(1.00083 0.00246299 0)
(1.00134 0.00197775 0)
(1.0006 0.00345095 0)
(0.999042 0.00638684 0)
(0.997967 0.00792982 0)
(1.00223 0.00109214 0)
(0.997737 -0.00598613 0)
(0.994881 0.00414781 0)
(1.00362 0.01009 0)
(1.01174 -0.00163924 0)
(1.00456 -0.00740422 0)
(0.995038 -0.00336755 0)
(0.993399 0.00680643 0)
(1.00283 0.00570583 0)
(1.00391 0.00793709 0)
(1.00571 0.00789726 0)
(1.0077 0.000595123 0)
(1.00538 0.00161627 0)
(1.00392 0.00235657 0)
(1.00367 0.000848248 0)
(1.00087 0.00254689 0)
(1.0013 0.00229331 0)
(1.00083 0.00351098 0)
(0.999259 0.00654459 0)
(0.998248 0.00812808 0)
(1.00209 0.00105216 0)
(0.997895 -0.00576077 0)
(0.995113 0.00397537 0)
(1.00357 0.00966933 0)
(1.01129 -0.00148932 0)
(1.00458 -0.00701637 0)
(0.995311 -0.0032631 0)
(0.993659 0.0066362 0)
(1.00279 0.00559593 0)
(1.00405 0.0075922 0)
(1.00539 0.00778942 0)
(1.00752 0.000772503 0)
(1.00543 0.00162801 0)
(1.00391 0.00256328 0)
(1.00362 0.000919451 0)
(1.00094 0.00262048 0)
(1.00127 0.00262251 0)
(1.00108 0.00357451 0)
(0.999513 0.00663899 0)
(0.998529 0.00834015 0)
(1.00193 0.00100723 0)
(0.99808 -0.00552243 0)
(0.995325 0.00378556 0)
(1.00352 0.00926226 0)
(1.0108 -0.00135455 0)
(1.0046 -0.00661635 0)
(0.995585 -0.00316701 0)
(0.993951 0.00646758 0)
(1.00273 0.0054872 0)
(1.00418 0.00723986 0)
(1.00505 0.00768587 0)
(1.00731 0.000952879 0)
(1.00545 0.00162818 0)
(1.0039 0.00276615 0)
(1.00356 0.00101508 0)
(1.00105 0.00267588 0)
(1.00124 0.00295975 0)
(1.00134 0.00364809 0)
(0.9998 0.00666127 0)
(0.998803 0.00855841 0)
(1.00176 0.000957278 0)
(0.998273 -0.00527133 0)
(0.995528 0.00357864 0)
(1.00348 0.00886869 0)
(1.01031 -0.00123448 0)
(1.00461 -0.00620686 0)
(0.99586 -0.00308063 0)
(0.994258 0.00629637 0)
(1.00266 0.00538428 0)
(1.0043 0.00687697 0)
(1.0047 0.00758525 0)
(1.00708 0.00114162 0)
(1.00546 0.00161768 0)
(1.00389 0.00296934 0)
(1.00348 0.00113755 0)
(1.00118 0.00270673 0)
(1.00123 0.00329873 0)
(1.00159 0.00375214 0)
(1.00012 0.00660709 0)
(0.999072 0.00876262 0)
(1.0016 0.000901527 0)
(0.998459 -0.00500705 0)
(0.995733 0.00335506 0)
(1.00343 0.00849053 0)
(1.00982 -0.00113082 0)
(1.00461 -0.00578883 0)
(0.996139 -0.00299269 0)
(0.994567 0.00612149 0)
(1.00258 0.00529144 0)
(1.00442 0.00650359 0)
(1.00437 0.00747984 0)
(1.00681 0.00134421 0)
(1.00548 0.00159514 0)
(1.00388 0.00317264 0)
(1.00341 0.00129735 0)
(1.00132 0.00271559 0)
(1.00124 0.00363007 0)
(1.00182 0.00390639 0)
(1.00047 0.00648446 0)
(0.999345 0.00891216 0)
(1.00145 0.000840729 0)
(0.998627 -0.00472995 0)
(0.995948 0.00311395 0)
(1.00337 0.00812832 0)
(1.00935 -0.00103975 0)
(1.00459 -0.00536706 0)
(0.996428 -0.00290028 0)
(0.994869 0.00593527 0)
(1.00251 0.0052175 0)
(1.00453 0.00612179 0)
(1.00406 0.00736781 0)
(1.00652 0.00156275 0)
(1.0055 0.00155152 0)
(1.00387 0.00336307 0)
(1.00332 0.00149906 0)
(1.00149 0.00270407 0)
(1.00127 0.00393819 0)
(1.00202 0.00412107 0)
(1.00084 0.00631811 0)
(0.99964 0.0089587 0)
(1.00133 0.00077421 0)
(0.998771 -0.00443966 0)
(0.996178 0.00285715 0)
(1.00329 0.00777919 0)
(1.0089 -0.000959835 0)
(1.00455 -0.00494869 0)
(0.996727 -0.00279723 0)
(0.995162 0.00573173 0)
(1.00244 0.00516219 0)
(1.00462 0.00573979 0)
(1.00377 0.0072433 0)
(1.00621 0.00180382 0)
(1.00553 0.00148936 0)
(1.00385 0.0035322 0)
(1.00323 0.00174917 0)
(1.00166 0.00267979 0)
(1.00134 0.00419934 0)
(1.00218 0.00439212 0)
(1.00122 0.00615061 0)
(0.999975 0.00886605 0)
(1.00123 0.000701351 0)
(0.998891 -0.00413662 0)
(0.996423 0.00258751 0)
(1.00319 0.00744299 0)
(1.00847 -0.000893906 0)
(1.00449 -0.00453495 0)
(0.997035 -0.00268356 0)
(0.995445 0.00550937 0)
(1.00237 0.00511825 0)
(1.0047 0.00536253 0)
(1.00352 0.00709943 0)
(1.00588 0.00207315 0)
(1.00557 0.00142283 0)
(1.00385 0.00366934 0)
(1.00314 0.00204705 0)
(1.00184 0.00265754 0)
(1.00145 0.00439405 0)
(1.00232 0.00470185 0)
(1.00158 0.00603842 0)
(1.00036 0.00864278 0)
(1.00115 0.000624034 0)
(0.998989 -0.00382375 0)
(0.996679 0.00230527 0)
(1.00308 0.00711818 0)
(1.00805 -0.000834734 0)
(1.00442 -0.00413427 0)
(0.997349 -0.00255807 0)
(0.995723 0.0052607 0)
(1.0023 0.00508921 0)
(1.00476 0.00500199 0)
(1.0033 0.00692833 0)
(1.00554 0.00236477 0)
(1.00561 0.0013681 0)
(1.00386 0.00376483 0)
(1.00303 0.00238798 0)
(1.00201 0.00265848 0)
(1.00161 0.00451856 0)
(1.00244 0.00502068 0)
(1.00192 0.00601997 0)
(1.00077 0.00834003 0)
(1.00108 0.000541166 0)
(0.999071 -0.00350212 0)
(0.996941 0.0020161 0)
(1.00296 0.00679826 0)
(1.00765 -0.000775844 0)
(1.00433 -0.00375918 0)
(0.99766 -0.00240288 0)
(0.995998 0.00498847 0)
(1.00224 0.00507238 0)
(1.00481 0.00466489 0)
(1.00311 0.0067232 0)
(1.00518 0.00267298 0)
(1.00564 0.00133874 0)
(1.0039 0.00380983 0)
(1.00291 0.00275718 0)
(1.00216 0.00269998 0)
(1.0018 0.00457891 0)
(1.00257 0.00530941 0)
(1.00221 0.00609111 0)
(1.00119 0.00803583 0)
(1.00102 0.000454038 0)
(0.999138 -0.00317432 0)
(0.997204 0.00172285 0)
(1.00283 0.00648245 0)
(1.00726 -0.00071059 0)
(1.00423 -0.00341657 0)
(0.997963 -0.00221483 0)
(0.996272 0.00470306 0)
(1.00217 0.00505266 0)
(1.00486 0.00435894 0)
(1.00295 0.00648826 0)
(1.00481 0.00299043 0)
(1.00566 0.00134188 0)
(1.00396 0.00380011 0)
(1.00278 0.00313146 0)
(1.00228 0.00279032 0)
(1.00203 0.00459054 0)
(1.0027 0.0055448 0)
(1.00245 0.00621502 0)
(1.00159 0.00780009 0)
(1.00097 0.000363652 0)
(0.999194 -0.00284481 0)
(0.997462 0.00143111 0)
(1.0027 0.00616655 0)
(1.00687 -0.000636071 0)
(1.00413 -0.0031069 0)
(0.998252 -0.00199938 0)
(0.996544 0.00441384 0)
(1.00209 0.00501793 0)
(1.00488 0.00409645 0)
(1.00283 0.00622676 0)
(1.00444 0.0033058 0)
(1.00566 0.00138287 0)
(1.00404 0.00374526 0)
(1.00265 0.00350343 0)
(1.00237 0.00293762 0)
(1.00227 0.0045711 0)
(1.00285 0.00572886 0)
(1.00267 0.00635096 0)
(1.00195 0.00764726 0)
(1.00091 0.000271301 0)
(0.999239 -0.00251448 0)
(0.997712 0.00114852 0)
(1.00257 0.0058386 0)
(1.00649 -0.000546057 0)
(1.00402 -0.00284256 0)
(0.998524 -0.00176608 0)
(0.996812 0.00412924 0)
(1.00201 0.0049601 0)
(1.0049 0.00386809 0)
(1.00273 0.00594597 0)
(1.00407 0.0036093 0)
(1.00563 0.00146526 0)
(1.00415 0.00365068 0)
(1.00254 0.0038615 0)
(1.00241 0.00314277 0)
(1.00252 0.00452524 0)
(1.00302 0.00586527 0)
(1.00285 0.0064811 0)
(1.00227 0.00754523 0)
(1.00086 0.000177324 0)
(0.999274 -0.00218668 0)
(0.997951 0.00088288 0)
(1.00245 0.0054904 0)
(1.0061 -0.000431118 0)
(1.00392 -0.00262169 0)
(0.99878 -0.0015265 0)
(0.997073 0.00386311 0)
(1.00193 0.00487835 0)
(1.00489 0.0036646 0)
(1.00265 0.00565532 0)
(1.00371 0.00389092 0)
(1.00556 0.00159073 0)
(1.00429 0.00352078 0)
(1.00244 0.00418694 0)
(1.00241 0.00340818 0)
(1.00276 0.00446019 0)
(1.00322 0.00594473 0)
(1.00301 0.00661597 0)
(1.00254 0.00746213 0)
(1.00081 8.37668e-05 0)
(0.9993 -0.00187044 0)
(0.998175 0.000649921 0)
(1.00233 0.00511202 0)
(1.00572 -0.000290355 0)
(1.0038 -0.00243441 0)
(0.99902 -0.00128641 0)
(0.997326 0.00362944 0)
(1.00185 0.00477574 0)
(1.00487 0.0034894 0)
(1.00261 0.00536433 0)
(1.00336 0.00414806 0)
(1.00546 0.0017645 0)
(1.00445 0.00336413 0)
(1.00238 0.00445689 0)
(1.00237 0.00373239 0)
(1.00299 0.00440024 0)
(1.00345 0.00594462 0)
(1.00317 0.0067612 0)
(1.00276 0.00740383 0)
(1.00076 -6.24177e-06 0)
(0.999317 -0.00157241 0)
(0.998382 0.000460422 0)
(1.00222 0.00469538 0)
(1.00534 -0.000132861 0)
(1.00369 -0.00227328 0)
(0.999248 -0.00106425 0)
(0.997568 0.00342995 0)
(1.00176 0.00465766 0)
(1.00484 0.00333706 0)
(1.00259 0.00507698 0)
(1.00302 0.00438177 0)
(1.00532 0.0019939 0)
(1.00463 0.00320018 0)
(1.00237 0.00465226 0)
(1.00229 0.00410055 0)
(1.00318 0.00438168 0)
(1.00371 0.00585112 0)
(1.00332 0.00687828 0)
(1.00294 0.00738976 0)
(1.00071 -9.35019e-05 0)
(0.999325 -0.00129308 0)
(0.998568 0.00032135 0)
(1.00212 0.00424516 0)
(1.00496 3.04312e-05 0)
(1.00356 -0.00212213 0)
(0.999465 -0.000873845 0)
(0.9978 0.00326138 0)
(1.00166 0.00453688 0)
(1.00479 0.00319914 0)
(1.0026 0.00479163 0)
(1.00271 0.00458215 0)
(1.00513 0.00226849 0)
(1.0048 0.00304506 0)
(1.0024 0.00476123 0)
(1.00218 0.00448828 0)
(1.00331 0.00444155 0)
(1.00399 0.00569665 0)
(1.0035 0.00692562 0)
(1.00307 0.00743126 0)
(1.00066 -0.000173929 0)
(0.999328 -0.00103974 0)
(0.99873 0.000236573 0)
(1.00202 0.00377279 0)
(1.00458 0.000197332 0)
(1.00343 -0.00196887 0)
(0.999672 -0.00071866 0)
(0.998023 0.00312393 0)
(1.00156 0.00442278 0)
(1.00472 0.00307471 0)
(1.00263 0.00450895 0)
(1.00243 0.00474128 0)
(1.0049 0.00257279 0)
(1.00496 0.00291061 0)
(1.0025 0.00477317 0)
(1.00206 0.00485024 0)
(1.00337 0.00457666 0)
(1.00428 0.00552113 0)
(1.00372 0.00687494 0)
(1.00317 0.00750279 0)
(1.00062 -0.000244087 0)
(0.999326 -0.000820735 0)
(0.998866 0.000191822 0)
(1.00193 0.00328702 0)
(1.00422 0.000356154 0)
(1.00328 -0.00179494 0)
(0.99987 -0.000609596 0)
(0.998239 0.00300877 0)
(1.00146 0.0043168 0)
(1.00463 0.00296822 0)
(1.00267 0.00422817 0)
(1.00219 0.00485944 0)
(1.00464 0.00289982 0)
(1.00509 0.00281979 0)
(1.00265 0.00470068 0)
(1.00197 0.00515154 0)
(1.00335 0.00476496 0)
(1.00454 0.00535527 0)
(1.004 0.00671427 0)
(1.00328 0.00753578 0)
(1.00057 -0.00030861 0)
(0.999322 -0.000635494 0)
(0.998974 0.000195058 0)
(1.00184 0.00280865 0)
(1.00387 0.000488025 0)
(1.00313 -0.00159106 0)
(1.00006 -0.000534478 0)
(0.998451 0.0029108 0)
(1.00134 0.00423634 0)
(1.00452 0.00289367 0)
(1.00274 0.00394244 0)
(1.00198 0.00491857 0)
(1.00434 0.0032324 0)
(1.00519 0.00278608 0)
(1.00285 0.00456828 0)
(1.0019 0.00538678 0)
(1.00328 0.00500102 0)
(1.00474 0.00524784 0)
(1.00431 0.00649018 0)
(1.00343 0.00749892 0)
(1.00053 -0.000355916 0)
(0.999319 -0.000500546 0)
(0.999053 0.000235108 0)
(1.00175 0.00235857 0)
(1.00354 0.000582501 0)
(1.00296 -0.00136411 0)
(1.00023 -0.000479887 0)
(0.998662 0.00280457 0)
(1.00122 0.00418454 0)
(1.00438 0.00286427 0)
(1.00282 0.0036733 0)
(1.00183 0.00491926 0)
(1.00402 0.00356194 0)
(1.00523 0.00281686 0)
(1.0031 0.0043882 0)
(1.00189 0.00552833 0)
(1.00315 0.00524754 0)
(1.00487 0.00519807 0)
(1.00464 0.00623335 0)
(1.00363 0.00736932 0)
(1.00049 -0.000395008 0)
(0.999317 -0.000403315 0)
(0.999108 0.000294714 0)
(1.00166 0.00194396 0)
(1.00323 0.000640583 0)
(1.00278 -0.00116076 0)
(1.00039 -0.000456247 0)
(0.998878 0.00266736 0)
(1.0011 0.00414821 0)
(1.00422 0.00287292 0)
(1.0029 0.00342676 0)
(1.00173 0.00485537 0)
(1.00368 0.00386088 0)
(1.00521 0.00291237 0)
(1.00336 0.00419373 0)
(1.00194 0.0055713 0)
(1.003 0.00548623 0)
(1.00492 0.00521092 0)
(1.00495 0.00597676 0)
(1.00389 0.00715018 0)
(1.00045 -0.000419722 0)
(0.999322 -0.000361069 0)
(0.999146 0.000389003 0)
(1.00157 0.00156855 0)
(1.00294 0.000639171 0)
(1.00259 -0.000888303 0)
(1.00053 -0.000396899 0)
(0.999101 0.00252215 0)
(1.00099 0.00410683 0)
(1.00403 0.00291923 0)
(1.00298 0.00321555 0)
(1.00168 0.00474124 0)
(1.00337 0.00411395 0)
(1.00514 0.00306427 0)
(1.00363 0.00402489 0)
(1.00206 0.00552834 0)
(1.00285 0.00569635 0)
(1.00488 0.00529014 0)
(1.00523 0.00575612 0)
(1.00421 0.0068722 0)
(1.0004 -0.000429645 0)
(0.999335 -0.000359456 0)
(0.999165 0.000489383 0)
(1.00147 0.00125679 0)
(1.00269 0.000610852 0)
(1.0024 -0.000563205 0)
(1.00065 -0.000298016 0)
(0.999327 0.00235064 0)
(1.0009 0.00402141 0)
(1.00382 0.00298057 0)
(1.00305 0.00304445 0)
(1.00168 0.00457896 0)
(1.00306 0.00430371 0)
(1.005 0.00324013 0)
(1.00387 0.00388672 0)
(1.00225 0.0054077 0)
(1.00273 0.00584 0)
(1.00477 0.00541074 0)
(1.00543 0.00559165 0)
(1.00455 0.00656173 0)
(1.00036 -0.000429101 0)
(0.999357 -0.000385737 0)
(0.999172 0.000581002 0)
(1.00136 0.00102246 0)
(1.00246 0.000561916 0)
(1.00221 -0.000294281 0)
(1.00073 -0.000170683 0)
(0.999552 0.0021635 0)
(1.00083 0.00389099 0)
(1.00359 0.00303946 0)
(1.00309 0.00291398 0)
(1.00172 0.00438327 0)
(1.0028 0.0044286 0)
(1.00482 0.00342206 0)
(1.00409 0.00378589 0)
(1.00248 0.00523499 0)
(1.00265 0.00590098 0)
(1.00461 0.00554336 0)
(1.00555 0.00549235 0)
(1.00489 0.00624781 0)
(1.00033 -0.000413804 0)
(0.999389 -0.000444538 0)
(0.999176 0.000666406 0)
(1.00125 0.000856953 0)
(1.00226 0.000473516 0)
(1.00204 -4.77659e-05 0)
(1.00079 1.04103e-05 0)
(0.999764 0.00199993 0)
(1.00079 0.00372772 0)
(1.00337 0.00309845 0)
(1.00311 0.00284008 0)
(1.00179 0.00418821 0)
(1.00257 0.0045017 0)
(1.00461 0.00360535 0)
(1.00425 0.00372933 0)
(1.00275 0.00503887 0)
(1.00263 0.00588484 0)
(1.00442 0.00566336 0)
(1.00557 0.00545806 0)
(1.00519 0.00597255 0)
(1.00029 -0.000394567 0)
(0.999432 -0.000506992 0)
(0.99918 0.000723229 0)
(1.00113 0.000753899 0)
(1.00209 0.000372345 0)
(1.00189 0.000156804 0)
(1.00083 0.000221695 0)
(0.99996 0.00188263 0)
(1.00077 0.00354795 0)
(1.00315 0.00313668 0)
(1.00311 0.00280404 0)
(1.00188 0.00399788 0)
(1.00239 0.00452529 0)
(1.00438 0.0037836 0)
(1.00436 0.0037209 0)
(1.00304 0.0048473 0)
(1.00268 0.00580968 0)
(1.00423 0.00575503 0)
(1.00552 0.00547439 0)
(1.00542 0.00576595 0)
(1.00025 -0.000364365 0)
(0.999485 -0.000581414 0)
(0.999192 0.000736187 0)
(1.001 0.000706146 0)
(1.00194 0.000270112 0)
(1.00177 0.000310086 0)
(1.00085 0.00045564 0)
(1.00013 0.00181764 0)
(1.00077 0.00336141 0)
(1.00294 0.00314159 0)
(1.00308 0.00279298 0)
(1.00199 0.00383816 0)
(1.00226 0.00452167 0)
(1.00414 0.00394866 0)
(1.00441 0.00374806 0)
(1.00332 0.00466169 0)
(1.00278 0.00566913 0)
(1.00407 0.00578689 0)
(1.0054 0.005497 0)
(1.00557 0.00561564 0)
(1.00022 -0.000333543 0)
(0.999545 -0.000652748 0)
(0.999216 0.000709723 0)
(1.00087 0.000711142 0)
(1.00181 0.000193674 0)
(1.00168 0.00040004 0)
(1.00086 0.000675679 0)
(1.00028 0.00180406 0)
(1.00078 0.00319395 0)
(1.00275 0.00313202 0)
(1.00305 0.00279839 0)
(1.00211 0.00369073 0)
(1.00218 0.00447568 0)
(1.0039 0.00407212 0)
(1.00441 0.00378408 0)
(1.00358 0.00448884 0)
(1.00294 0.0054793 0)
(1.00395 0.00576038 0)
(1.00525 0.00551507 0)
(1.00563 0.00551694 0)
(1.00019 -0.000303091 0)
(0.99961 -0.00070768 0)
(0.999257 0.000634987 0)
(1.00074 0.00074881 0)
(1.00169 0.000161927 0)
(1.00162 0.000442458 0)
(1.00088 0.000866858 0)
(1.00041 0.00183392 0)
(1.0008 0.00305079 0)
(1.00259 0.00310294 0)
(1.003 0.00280116 0)
(1.00224 0.00354284 0)
(1.00214 0.00439238 0)
(1.00368 0.0041734 0)
(1.00437 0.00384581 0)
(1.00381 0.00435624 0)
(1.00314 0.00527521 0)
(1.00388 0.00568307 0)
(1.00509 0.00551263 0)
(1.00563 0.00544031 0)
(1.00016 -0.000273675 0)
(0.999674 -0.00074058 0)
(0.999317 0.0005236 0)
(1.00063 0.000801416 0)
(1.00157 0.000188001 0)
(1.00159 0.000445113 0)
(1.00092 0.00100366 0)
(1.00052 0.00188084 0)
(1.00083 0.00293488 0)
(1.00244 0.00306036 0)
(1.00295 0.00280412 0)
(1.00237 0.00341374 0)
(1.00215 0.00428157 0)
(1.00348 0.00424446 0)
(1.00429 0.00392116 0)
(1.004 0.00425498 0)
(1.00336 0.00506539 0)
(1.00387 0.00555811 0)
(1.00494 0.00548183 0)
(1.00558 0.00536926 0)
(1.00014 -0.000250338 0)
(0.999736 -0.000742235 0)
(0.999392 0.000414552 0)
(1.00053 0.000842545 0)
(1.00144 0.000262178 0)
(1.00157 0.000430521 0)
(1.00097 0.00106036 0)
(1.00062 0.0019205 0)
(1.00085 0.00285759 0)
(1.00231 0.00302429 0)
(1.00288 0.00281323 0)
(1.00249 0.00330659 0)
(1.0022 0.00415095 0)
(1.00333 0.00426709 0)
(1.00419 0.00399181 0)
(1.00414 0.00418282 0)
(1.00359 0.00485804 0)
(1.00391 0.00539384 0)
(1.00481 0.00541952 0)
(1.0055 0.00529259 0)
(1.00011 -0.000231215 0)
(0.999793 -0.000716438 0)
(0.999479 0.000310159 0)
(1.00045 0.00086254 0)
(1.00132 0.000362427 0)
(1.00156 0.000433082 0)
(1.00104 0.00106127 0)
(1.00073 0.00194098 0)
(1.00088 0.00280617 0)
(1.00219 0.00299689 0)
(1.00282 0.00282017 0)
(1.0026 0.00320323 0)
(1.00228 0.00400633 0)
(1.00321 0.00424863 0)
(1.00407 0.00404892 0)
(1.00423 0.00414657 0)
(1.0038 0.00467473 0)
(1.004 0.00520321 0)
(1.00471 0.00532657 0)
(1.00541 0.00520823 0)
(1.00009 -0.000215958 0)
(0.999844 -0.000667279 0)
(0.999572 0.00020733 0)
(1.00039 0.000856162 0)
(1.00119 0.000474369 0)
(1.00153 0.000463262 0)
(1.00112 0.00103748 0)
(1.00084 0.00192722 0)
(1.00092 0.00276173 0)
(1.00208 0.00298412 0)
(1.00274 0.00283826 0)
(1.0027 0.00311779 0)
(1.00239 0.00385107 0)
(1.00314 0.0041964 0)
(1.00396 0.00407773 0)
(1.00428 0.00412364 0)
(1.00398 0.00452383 0)
(1.00411 0.0049969 0)
(1.00464 0.00519973 0)
(1.0053 0.00511455 0)
(1.00008 -0.000206496 0)
(0.999886 -0.000600188 0)
(0.999665 0.000117593 0)
(1.00036 0.00081735 0)
(1.00107 0.000588614 0)
(1.0015 0.000533438 0)
(1.0012 0.00101309 0)
(1.00097 0.00187342 0)
(1.00096 0.00270747 0)
(1.00199 0.00297579 0)
(1.00265 0.00286461 0)
(1.00277 0.00306138 0)
(1.00251 0.00369104 0)
(1.00311 0.00410564 0)
(1.00386 0.00407569 0)
(1.00429 0.00409237 0)
(1.00413 0.00440026 0)
(1.00424 0.00479582 0)
(1.00462 0.00504035 0)
(1.0052 0.00501105 0)
(1.00006 -0.000198343 0)
(0.99992 -0.00052943 0)
(0.999752 4.94972e-05 0)
(1.00035 0.000755093 0)
(1.00097 0.0006848 0)
(1.00145 0.000633183 0)
(1.00126 0.00100522 0)
(1.0011 0.00179753 0)
(1.00103 0.00263538 0)
(1.00191 0.00296029 0)
(1.00256 0.00289084 0)
(1.00282 0.00302456 0)
(1.00263 0.00354457 0)
(1.00312 0.00397994 0)
(1.00377 0.00404335 0)
(1.00429 0.00405058 0)
(1.00424 0.0042883 0)
(1.00436 0.00461555 0)
(1.00463 0.00485993 0)
(1.0051 0.00489509 0)
(1.00005 -0.00019206 0)
(0.999946 -0.000456321 0)
(0.999829 6.35903e-06 0)
(1.00035 0.000682714 0)
(1.00089 0.000756207 0)
(1.0014 0.000741081 0)
(1.00131 0.00102258 0)
(1.00123 0.00171866 0)
(1.00111 0.00253893 0)
(1.00185 0.00293203 0)
(1.00247 0.00291886 0)
(1.00284 0.00300153 0)
(1.00273 0.00342269 0)
(1.00315 0.00383943 0)
(1.00372 0.00397589 0)
(1.00427 0.00399831 0)
(1.00432 0.0041752 0)
(1.00446 0.00444831 0)
(1.00466 0.00467017 0)
(1.00503 0.00475168 0)
(1.00004 -0.000185775 0)
(0.999966 -0.000388264 0)
(0.999894 -1.19716e-05 0)
(1.00036 0.000610239 0)
(1.00082 0.000800742 0)
(1.00134 0.000844064 0)
(1.00134 0.00106894 0)
(1.00135 0.00165339 0)
(1.0012 0.00242065 0)
(1.00182 0.00287753 0)
(1.00238 0.00293643 0)
(1.00283 0.00299158 0)
(1.00282 0.00331886 0)
(1.0032 0.00369965 0)
(1.00368 0.00387944 0)
(1.00424 0.00393051 0)
(1.00437 0.00406664 0)
(1.00455 0.00428756 0)
(1.00471 0.004486 0)
(1.00499 0.00458116 0)
(1.00003 -0.000176738 0)
(0.999982 -0.00033095 0)
(0.999947 -6.08645e-06 0)
(1.00039 0.000547743 0)
(1.00077 0.000816247 0)
(1.00129 0.000933256 0)
(1.00135 0.00113276 0)
(1.00145 0.00161346 0)
(1.00131 0.002302 0)
(1.00182 0.00279704 0)
(1.0023 0.00293154 0)
(1.0028 0.00299216 0)
(1.00288 0.00323429 0)
(1.00325 0.00356356 0)
(1.00367 0.00376466 0)
(1.00421 0.00383731 0)
(1.0044 0.00395738 0)
(1.00461 0.00413092 0)
(1.00474 0.00430872 0)
(1.00497 0.00439973 0)
(1.00003 -0.000165374 0)
(0.999996 -0.000282393 0)
(0.999989 1.50695e-05 0)
(1.00041 0.000503279 0)
(1.00075 0.000811143 0)
(1.00124 0.00100262 0)
(1.00135 0.00119872 0)
(1.00152 0.00159593 0)
(1.0014 0.00219782 0)
(1.00183 0.00269742 0)
(1.00224 0.00289773 0)
(1.00276 0.00298304 0)
(1.00291 0.00317236 0)
(1.0033 0.00343738 0)
(1.00366 0.0036418 0)
(1.00419 0.00372674 0)
(1.00441 0.00383663 0)
(1.00466 0.00397863 0)
(1.00477 0.00413301 0)
(1.00495 0.00421975 0)
(1.00002 -0.00015249 0)
(1.00001 -0.000239688 0)
(1.00002 4.19383e-05 0)
(1.00043 0.000478108 0)
(1.00073 0.000799796 0)
(1.0012 0.00104728 0)
(1.00133 0.00126014 0)
(1.00157 0.00159884 0)
(1.00149 0.00211445 0)
(1.00186 0.00259161 0)
(1.0022 0.00284169 0)
(1.00272 0.00295039 0)
(1.00292 0.0031162 0)
(1.00332 0.00332595 0)
(1.00366 0.00351401 0)
(1.00416 0.00360954 0)
(1.00441 0.00370486 0)
(1.00468 0.00382427 0)
(1.00479 0.00395751 0)
(1.00493 0.00403825 0)
(1.00002 -0.000137854 0)
(1.00002 -0.000203168 0)
(1.00005 7.11697e-05 0)