/*--------------------------------*- C++ -*----------------------------------*\
| =========                 |                                                 |
| \\      /  F ield         | OpenFOAM: The Open Source CFD Toolbox           |
|  \\    /   O peration     | Version:  3.0.1                                 |
|   \\  /    A nd           | Web:      www.OpenFOAM.org                      |
|    \\/     M anipulation  |                                                 |
\*---------------------------------------------------------------------------*/
FoamFile
{
    version     2.0;
    format      ascii;
    class       volScalarField;
    location    "0.2";
    object      p;
}
// * * * * * * * * * * * * * * * * * * * * * * * * * * * * * * * * * * * * * //

dimensions      [0 2 -2 0 0 0 0];

internalField   nonuniform List<scalar> 
9600
(
-4.68655e-12
0.000593867
0.00010939
0.000711532
0.000805298
0.0011245
0.00106377
0.00051497
0.000547805
0.00135055
0.00178444
0.00226441
0.00131303
0.00275242
0.00338652
0.0036566
0.0041622
0.00469599
0.00572862
0.00762846
2.61328e-06
0.000592588
0.00011152
0.000707332
0.000805643
0.00112404
0.00106352
0.000506573
0.000555597
0.00135217
0.00178042
0.00226234
0.00132328
0.00274419
0.00339234
0.00362034
0.00417275
0.00462474
0.00573911
0.00731197
4.90382e-06
0.000591024
0.00011443
0.000701039
0.000807103
0.00112407
0.00105933
0.000500365
0.000563107
0.00135225
0.00178339
0.00225549
0.00133568
0.00272797
0.00339797
0.00357196
0.00418042
0.00454673
0.00573298
0.00693869
6.9929e-06
0.000589674
0.000117817
0.00069317
0.000809813
0.00112602
0.00105088
0.000497788
0.000568988
0.00135328
0.00179204
0.00224026
0.00134988
0.00270711
0.00340308
0.00351603
0.00418504
0.00447779
0.00570107
0.006599
9.02922e-06
0.000588544
0.000122029
0.00068355
0.000813976
0.00112937
0.00103882
0.000498075
0.000574521
0.0013548
0.00180332
0.00221945
0.0013664
0.00268318
0.0034088
0.00345518
0.00419456
0.00440531
0.00564445
0.00631052
1.1063e-05
0.000587602
0.000127145
0.000672299
0.000819547
0.0011333
0.00102459
0.000500318
0.000580374
0.00135604
0.00181566
0.00219618
0.00138363
0.00265729
0.00341476
0.00339293
0.00420473
0.00432709
0.00556946
0.00605519
1.31163e-05
0.000586795
0.000132977
0.000659839
0.000826272
0.0011375
0.00100964
0.00050344
0.000587036
0.00135679
0.00182853
0.00217183
0.00140042
0.00263033
0.00342076
0.00333034
0.00420965
0.00424966
0.00547384
0.00582002
1.5227e-05
0.000586034
0.000139304
0.000646646
0.000833847
0.00114194
0.000994893
0.000506682
0.00059501
0.00135699
0.00184163
0.00214705
0.00141648
0.00260263
0.00342639
0.00326741
0.0042071
0.00417591
0.00535304
0.00560056
1.74463e-05
0.000585228
0.000145975
0.000633045
0.000841978
0.00114657
0.000980768
0.000509633
0.000604569
0.00135655
0.00185483
0.00212227
0.00143164
0.00257432
0.0034307
0.00320495
0.00419544
0.00410617
0.00520685
0.00539484
1.98196e-05
0.000584298
0.000152901
0.000619197
0.000850445
0.00115134
0.000967415
0.00051196
0.000615762
0.0013555
0.00186801
0.0020978
0.00144565
0.00254548
0.00343284
0.00314441
0.00417281
0.00404075
0.00503729
0.00519886
2.23792e-05
0.000583183
0.000160026
0.00060517
0.00085913
0.00115615
0.000954793
0.000513324
0.00062853
0.00135394
0.00188093
0.00207395
0.00145826
0.00251592
0.00343219
0.00308714
0.00413763
0.00397973
0.00484722
0.00500686
2.51491e-05
0.000581836
0.000167312
0.000590997
0.000867988
0.00116086
0.000942803
0.00051342
0.000642734
0.00135197
0.00189329
0.00205106
0.00146914
0.00248797
0.00342823
0.00303414
0.00408899
0.00392214
0.00464086
0.0048136
2.81502e-05
0.000580222
0.000174733
0.000576691
0.00087701
0.00116533
0.000931364
0.000512034
0.000658198
0.00134971
0.00190476
0.00202955
0.0014779
0.00246219
0.00342034
0.00298621
0.00402673
0.00386563
0.00442351
0.0046154
3.14022e-05
0.000578306
0.000182268
0.000562263
0.000886201
0.00116945
0.000920435
0.000509069
0.00067472
0.0013474
0.00191483
0.00200984
0.00148414
0.00243836
0.00340806
0.00294338
0.00395151
0.00380718
0.00420035
0.00441037
3.4925e-05
0.000576054
0.000189905
0.000547718
0.000895574
0.00117316
0.000910003
0.000504545
0.000692042
0.00134538
0.00192297
0.0019923
0.00148746
0.00241655
0.00339117
0.00290451
0.00386475
0.00374391
0.0039758
0.00419835
3.87402e-05
0.00057343
0.000197632
0.000533065
0.000905134
0.0011764
0.000900054
0.00049857
0.000709854
0.00134408
0.00192868
0.00197724
0.00148761
0.00239645
0.00336978
0.00286773
0.00376788
0.00367347
0.0037532
0.00397984
4.28717e-05
0.000570399
0.000205436
0.000518318
0.00091488
0.00117916
0.000890545
0.000491331
0.000727763
0.00134395
0.00193149
0.00196488
0.00148449
0.00237822
0.00334454
0.00283082
0.00366216
0.00359466
0.00353458
0.00375543
4.73463e-05
0.00056692
0.000213299
0.000503494
0.000924805
0.00118145
0.000881392
0.000483073
0.000745286
0.00134541
0.00193104
0.00195528
0.00147823
0.0023708
0.00331642
0.00279151
0.0035485
0.00350761
0.00332095
0.00352574
5.21946e-05
0.000562951
0.000221193
0.000488621
0.000934878
0.00118331
0.000872466
0.000474085
0.000761923
0.00134891
0.00192707
0.00194829
0.00146917
0.00235792
0.00328662
0.00274846
0.00342719
0.00341327
0.00311294
0.00329167
5.74504e-05
0.000558452
0.000229081
0.000473735
0.000945038
0.00118483
0.00086356
0.000464729
0.000777213
0.00135471
0.00191954
0.00194337
0.00145801
0.00233582
0.0032561
0.00270134
0.00329793
0.00331295
0.00291161
0.00305431
6.31511e-05
0.000553379
0.000236909
0.000458891
0.000955197
0.00118616
0.000854404
0.000455373
0.000790773
0.00136289
0.00190859
0.00193987
0.00144604
0.00230626
0.00322466
0.00265052
0.00316021
0.0032076
0.00271855
0.00281445
6.93412e-05
0.000547688
0.00024461
0.000444163
0.000965243
0.0011875
0.000844717
0.000446307
0.000802296
0.00137341
0.00189457
0.00193677
0.00143473
0.00226969
0.00319136
0.00259745
0.00301376
0.00309719
0.00253569
0.00257277
7.6069e-05
0.000541348
0.000252079
0.000429644
0.000975023
0.00118908
0.000834212
0.000437777
0.000811555
0.00138609
0.00187811
0.00193258
0.00142524
0.00222591
0.00315481
0.00254388
0.00285878
0.00298093
0.00236532
0.00233035
8.33773e-05
0.000534345
0.000259183
0.00041543
0.000984331
0.00119121
0.000822629
0.000429951
0.000818448
0.00140046
0.00186029
0.00192581
0.00141808
0.00217453
0.00311322
0.002491
0.00269622
0.00285769
0.0022095
0.00208938
9.13097e-05
0.000526684
0.000265776
0.000401626
0.000992952
0.0011942
0.000809797
0.00042281
0.000823103
0.0014157
0.00184237
0.00191542
0.00141303
0.00211711
0.00306493
0.00243912
0.00252805
0.00272621
0.0020694
0.00185339
9.99091e-05
0.000518381
0.000271658
0.000388406
0.00100068
0.00119828
0.000795654
0.000416154
0.000825971
0.00143063
0.0018253
0.00190095
0.0014092
0.00205636
0.00300878
0.00238784
0.00235677
0.00258529
0.00194498
0.00162699
0.000109192
0.000509476
0.000276618
0.00037595
0.00100726
0.00120362
0.000780216
0.000409745
0.000827849
0.00144409
0.00180938
0.00188234
0.00140535
0.00199409
0.00294418
0.00233679
0.00218479
0.00243388
0.00183524
0.00141557
0.000119176
0.000500036
0.000280413
0.000364414
0.00101249
0.00121031
0.000763691
0.000403035
0.000829559
0.00145543
0.00179445
0.0018599
0.00140001
0.00192993
0.00287134
0.00228616
0.00201438
0.00227093
0.00173807
0.00122494
0.000129887
0.000490205
0.000282697
0.000353931
0.00101627
0.00121845
0.000746522
0.000395034
0.00083163
0.00146451
0.00178011
0.00183433
0.001392
0.00186331
0.00279049
0.00223645
0.00184829
0.00209592
0.00164981
0.00106079
0.000141303
0.000480201
0.000283128
0.000344519
0.00101861
0.00122792
0.0007293
0.000384879
0.000834248
0.00147143
0.00176567
0.00180629
0.00138088
0.00179341
0.00270129
0.00218772
0.00168989
0.00190946
0.00156471
0.000927226
0.000153365
0.000470254
0.000281428
0.00033619
0.00101953
0.00123838
0.000712981
0.000371802
0.000837171
0.00147663
0.0017498
0.00177604
0.00136718
0.00172045
0.00260303
0.002139
0.00154297
0.00171448
0.00147592
0.000824993
0.000165951
0.000460608
0.000277308
0.000328896
0.0010192
0.00124938
0.00069862
0.000355341
0.000839687
0.00148107
0.00173146
0.00174324
0.00135136
0.00164401
0.00249531
0.00208811
0.0014107
0.00151677
0.00137792
0.000750551
0.000178958
0.000451609
0.000270522
0.000322331
0.00101805
0.00126033
0.000687034
0.000335553
0.000840555
0.00148596
0.00171063
0.00170651
0.00133341
0.00156542
0.00237885
0.00203273
0.00129333
0.00132251
0.0012689
0.000697136
0.000192214
0.000443668
0.000261011
0.000315958
0.00101662
0.00127063
0.000678751
0.000312818
0.00083793
0.00149195
0.0016879
0.00166403
0.00131324
0.00148774
0.00225457
0.00197047
0.00118902
0.00113632
0.00115085
0.00065862
0.000205432
0.000437128
0.000248857
0.000309194
0.00101546
0.00127974
0.000673899
0.000288044
0.000829944
0.00149845
0.00166495
0.00161518
0.00128954
0.00141402
0.0021239
0.00189937
0.00109653
0.00096067
0.00102545
0.000631076
0.000218377
0.000432315
0.000234304
0.000301299
0.00101513
0.00128728
0.000672089
0.000262816
0.000815471
0.00150433
0.00164372
0.0015601
0.00125901
0.00134564
0.00199119
0.00181847
0.00101347
0.000797808
0.000892798
0.000608874
0.000230726
0.000429587
0.000217857
0.000291118
0.00101612
0.00129318
0.000672439
0.000239164
0.000794159
0.0015076
0.00162552
0.00149923
0.0012189
0.00128142
0.00186283
0.00172955
0.000934996
0.000649768
0.00075512
0.000582618
0.000242165
0.000429197
0.00020019
0.000277499
0.0010187
0.00129801
0.00067354
0.000218603
0.000766368
0.00150519
0.00161058
0.00143545
0.0011697
0.00121894
0.00174223
0.00163694
0.000857165
0.000515377
0.000617876
0.000543567
0.000252344
0.000431301
0.000182194
0.000259376
0.00102269
0.00130283
0.00067377
0.000201602
0.000733531
0.00149427
0.00159825
0.00137307
0.00110699
0.00115183
0.00162794
0.00154687
0.000781277
0.000389651
0.000485431
0.000489204
0.000260873
0.000435983
0.000165023
0.000235691
0.00102739
0.00130892
0.000671819
0.000188118
0.000698293
0.0014729
0.00158659
0.00131575
0.00103288
0.00107605
0.00151732
0.00146298
0.000712866
0.000268852
0.000356996
0.000422986
0.000267468
0.000443145
0.000149987
0.000205817
0.0010314
0.00131809
0.000666986
0.00017683
0.000663961
0.00144106
0.00157117
0.00126512
0.000954273
0.000991394
0.00140625
0.00138311
0.000658233
0.000156805
0.000228083
0.00034829
0.000271875
0.000452471
0.000138494
0.000169584
0.00103273
0.00133207
0.000659471
0.000164822
0.000632803
0.00140047
0.00154737
0.00122054
0.000879227
0.000899343
0.00129042
0.00130376
0.000618927
6.14069e-05
9.78538e-05
0.000263807
0.00027387
0.000463494
0.000131929
0.00012709
0.00102886
0.00135192
0.000650627
0.000148868
0.000605312
0.00135453
0.00151227
0.00117915
0.000813631
0.00080285
0.0011672
0.00122033
0.00059032
-9.87549e-06
-2.5221e-05
0.000167752
0.000273319
0.000475619
0.000131551
7.89429e-05
0.0010169
0.00137812
0.000643397
0.000125384
0.000580244
0.00130856
0.00146523
0.00113468
0.000758018
0.000711393
0.0010387
0.0011267
0.000566495
-5.61548e-05
-0.000130904
6.81685e-05
0.00027014
0.000488178
0.000138465
2.6521e-05
0.000993875
0.00141041
0.000641453
9.18377e-05
0.000554228
0.00126772
0.0014081
0.00108037
0.000710371
0.000635057
0.000910183
0.00101802
0.000539912
-8.2519e-05
-0.000213309
-2.09278e-05
0.000264314
0.000500542
0.000153486
-2.80778e-05
0.000956978
0.00144714
0.000649061
4.8449e-05
0.000522048
0.0012347
0.00134587
0.00101351
0.000665656
0.000577117
0.000790892
0.000895575
0.000500202
-9.43384e-05
-0.000274641
-9.05384e-05
0.000256104
0.000511469
0.000176914
-8.25031e-05
0.000904199
0.00148522
0.000670304
-3.41881e-06
0.000477099
0.00120894
0.00128747
0.000931115
0.00061179
0.000533863
0.00069387
0.000767648
0.000437307
-0.000100653
-0.000319099
-0.000142972
0.000245951
0.000519645
0.000210185
-0.000133493
0.000834668
0.00152013
0.00070778
-5.95794e-05
0.000413846
0.00118733
0.00124172
0.000836966
0.000538381
0.000498707
0.000627123
0.000647281
0.000348804
-0.000115925
-0.000348331
-0.000187852
0.000234389
0.000524054
0.000248977
-0.000179618
0.000748487
0.00154649
0.000762623
-0.00011358
0.000330001
0.00116281
0.0012131
0.000740867
0.000441879
0.000458499
0.00058749
0.000553097
0.00024454
-0.000157433
-0.000368746
-0.000228546
0.000222103
0.000523638
0.000293153
-0.000211958
0.000646943
0.0015581
0.000833927
-0.00015675
0.000225201
0.00112656
0.00120344
0.0006571
0.000325382
0.000397747
0.000565643
0.000498575
0.000143796
-0.000233575
-0.000397241
-0.000262854
0.000209883
0.000517525
0.000340586
-0.000231143
0.000532875
0.00154888
0.000918467
-0.000180378
0.000100275
0.00106731
0.00121189
0.000600652
0.000195958
0.000306036
0.000546806
0.000481668
7.21522e-05
-0.000331059
-0.000456743
-0.000296063
0.00019846
0.000505374
0.000388286
-0.000234845
0.000410655
0.00151397
0.00101058
-0.000177912
-3.73564e-05
0.0009778
0.00122919
0.000578819
6.74313e-05
0.000181112
0.000512106
0.000491725
4.56095e-05
-0.000423965
-0.000555601
-0.000350012
0.000188621
0.00048684
0.000432959
-0.000221389
0.000286159
0.00144949
0.00110256
-0.000143841
-0.000176335
0.000853003
0.00124086
0.000591991
-4.09864e-05
2.95666e-05
0.000444503
0.000514241
6.34238e-05
-0.000482539
-0.000673942
-0.000449264
0.000180924
0.000462515
0.000471221
-0.000190154
0.000166298
0.00135413
0.00118497
-7.63358e-05
-0.000303989
0.000693946
0.00123226
0.00063612
-0.000112106
-0.000136265
0.000333599
0.000528599
0.000115845
-0.00049193
-0.000780394
-0.000593482
0.000175686
0.000433289
0.00050049
-0.000143315
5.76501e-05
0.00122931
0.00124893
2.16854e-05
-0.000407717
0.00050595
0.00118984
0.000700742
-0.000136626
-0.000296887
0.000180357
0.000512997
0.000190015
-0.000454117
-0.000844633
-0.000752186
0.000173008
0.00040046
0.000518518
-8.42108e-05
-3.38074e-05
0.00107921
0.00128598
0.000141311
-0.000477169
0.000299424
0.00110429
0.000768671
-0.000113695
-0.000429554
-3.01269e-06
0.000449456
0.000265559
-0.000377159
-0.000857165
-0.000887371
0.000172768
0.00036574
0.000523707
-1.68104e-05
-0.000103795
0.00091067
0.00128833
0.000271922
-0.000504464
9.15624e-05
0.00097267
0.000820852
-4.9169e-05
-0.000516649
-0.000197469
0.000330428
0.000317375
-0.000271083
-0.000823257
-0.000971351
0.000174522
0.000330732
0.000515798
5.2838e-05
-0.000149862
0.000734194
0.00125179
0.00040062
-0.000485966
-9.94397e-05
0.000799533
0.000840704
4.4397e-05
-0.000549759
-0.00037746
0.000164975
0.000321601
-0.000154382
-0.000750167
-0.00100033
0.000177478
0.000297141
0.000495267
0.000118435
-0.000170635
0.00056153
0.00117572
0.000514254
-0.000425278
-0.00025866
0.000594744
0.000815933
0.000146554
-0.000530845
-0.000520335
-2.72794e-05
0.000263926
-5.29404e-05
-0.000645425
-0.00098312
0.00018084
0.00026625
0.000463568
0.000175127
-0.000165923
0.000402499
0.00106346
0.000599931
-0.000330983
-0.000374421
0.000375405
0.000741707
0.000235783
-0.000468291
-0.000612995
-0.000219669
0.000148589
6.40299e-06
-0.000524336
-0.00092864
0.00018371
0.000238808
0.00042328
0.000219254
-0.000144237
0.000264187
0.000923079
0.000649034
-0.000218509
-0.000441582
0.000162932
0.000622215
0.000294649
-0.000377271
-0.000652492
-0.00038662
-4.84206e-06
6.4567e-06
-0.000410457
-0.000844171
0.000185181
0.000215117
0.00037767
0.000248047
-0.000109346
0.000151301
0.000765856
0.000658502
-0.000104328
-0.000461217
-2.39683e-05
0.000467809
0.000311345
-0.00027884
-0.000644817
-0.000513009
-0.000170377
-5.12254e-05
-0.000328995
-0.000742638
0.000184569
0.000195104
0.000330095
0.000260708
-6.78671e-05
6.5652e-05
0.000604505
0.000629677
-3.27999e-06
-0.000439881
-0.00017298
0.000294948
0.000282826
-0.000192976
-0.000600735
-0.000593376
-0.000323012
-0.000149036
-0.000295551
-0.000644202
0.000181471
0.000178229
0.00028335
0.000258125
-2.7033e-05
6.5641e-06
0.000450728
0.000567188
7.34283e-05
-0.000390585
-0.000278874
0.000123048
0.000214713
-0.000134362
-0.000536651
-0.000630286
-0.000447231
-0.000264656
-0.000309712
-0.000569291
0.00017569
0.000163969
0.000239421
0.000242473
7.61289e-06
-2.9431e-05
0.000312777
0.000479242
0.000119689
-0.000328556
-0.000343193
-3.14544e-05
0.000117821
-0.000110561
-0.000470564
-0.00063197
-0.000536485
-0.000377367
-0.000358563
-0.000529377
0.00016719
0.000150495
0.00019947
0.000216952
3.23062e-05
-4.83406e-05
0.000195548
0.000376566
0.000134576
-0.000267568
-0.000371923
-0.000158143
6.74989e-06
-0.000121024
-0.000416798
-0.000610347
-0.000591456
-0.000473687
-0.000425486
-0.000523918
0.000156123
0.000137306
0.000164006
0.000185143
4.52922e-05
-5.67718e-05
0.00010059
0.000269856
0.000121461
-0.000217681
-0.000374961
-0.000253493
-0.000103859
-0.000158768
-0.000383878
-0.000579272
-0.000618099
-0.000547554
-0.000495449
-0.000544075
0.000142782
0.000123724
0.000132736
0.000150155
4.67763e-05
-6.04137e-05
2.64793e-05
0.000167551
8.61058e-05
-0.000184924
-0.000363976
-0.000319792
-0.000203275
-0.000213963
-0.000374009
-0.000550454
-0.000624765
-0.000598656
-0.000558305
-0.000578496
0.000127599
0.000109238
0.00010497
0.00011448
3.82818e-05
-6.38575e-05
-2.9883e-05
7.53246e-05
3.59337e-05
-0.000171116
-0.000348962
-0.000362137
-0.000285815
-0.000276305
-0.000384037
-0.000531219
-0.000621055
-0.000630457
-0.000609106
-0.000617359
0.000111013
9.36038e-05
7.99089e-05
7.98325e-05
2.1941e-05
-7.00151e-05
-7.25997e-05
-4.04527e-06
-2.15539e-05
-0.000174707
-0.000336917
-0.000387283
-0.000350311
-0.000337569
-0.000408032
-0.000524254
-0.000615021
-0.000648253
-0.000646853
-0.000653945
9.34139e-05
7.68471e-05
5.67669e-05
4.70983e-05
1.99136e-07
-8.01539e-05
-0.000105955
-7.02792e-05
-8.02099e-05
-0.000192052
-0.000331892
-0.000402376
-0.000398601
-0.000392656
-0.000439803
-0.000528725
-0.000611853
-0.000657941
-0.000673121
-0.000684764
7.51792e-05
5.91492e-05
3.48819e-05
1.66795e-05
-2.46314e-05
-9.44105e-05
-0.000133635
-0.000124734
-0.000135857
-0.000218765
-0.000335227
-0.000413148
-0.00043389
-0.000439327
-0.000474199
-0.000541868
-0.000613829
-0.000664445
-0.000691065
-0.000708963
5.66536e-05
4.08062e-05
1.38454e-05
-1.13626e-05
-5.07311e-05
-0.000112159
-0.000158262
-0.000169475
-0.000186202
-0.000250567
-0.000346206
-0.000423467
-0.000460136
-0.000477424
-0.000507638
-0.000560458
-0.000621109
-0.000670983
-0.000704029
-0.000727415
3.81794e-05
2.22017e-05
-6.51913e-06
-3.7164e-05
-7.67946e-05
-0.00013235
-0.000181368
-0.000206659
-0.000230466
-0.000284041
-0.000363023
-0.000435417
-0.000480931
-0.000508106
-0.000538136
-0.000581682
-0.000632714
-0.000679162
-0.000714719
-0.000741813
2.01136e-05
3.76298e-06
-2.62096e-05
-6.09067e-05
-0.000101913
-0.000153818
-0.000203652
-0.000238251
-0.000268866
-0.000316881
-0.000383605
-0.000449671
-0.00049896
-0.00053318
-0.000565024
-0.000603485
-0.000647297
-0.000689492
-0.000725005
-0.000753945
2.83258e-06
-1.40565e-05
-4.50334e-05
-8.27084e-05
-0.000125521
-0.000175546
-0.000225328
-0.000265743
-0.000301963
-0.000347632
-0.000406004
-0.000466019
-0.000515971
-0.000554501
-0.000588545
-0.000624633
-0.00066358
-0.000701853
-0.000735997
-0.000765323
-1.32561e-05
-3.07652e-05
-6.26334e-05
-0.00010253
-0.000147196
-0.00019659
-0.00024627
-0.000290233
-0.000330606
-0.000375647
-0.000428671
-0.000483749
-0.000532862
-0.000573626
-0.000609433
-0.000644594
-0.000680537
-0.000715769
-0.000748197
-0.000777062
-2.77104e-05
-4.58868e-05
-7.85857e-05
-0.000120167
-0.000166487
-0.000215928
-0.000265626
-0.000311904
-0.000355376
-0.000400712
-0.000450478
-0.000501771
-0.000549531
-0.000591315
-0.000628359
-0.000663239
-0.000697375
-0.000730449
-0.000761409
-0.000789652
-4.01906e-05
-5.89939e-05
-9.24158e-05
-0.000135219
-0.000182828
-0.000232555
-0.000282312
-0.000330033
-0.000375721
-0.000421681
-0.000469577
-0.00051819
-0.000564582
-0.000606739
-0.000644711
-0.000679724
-0.000712804
-0.000744183
-0.000773604
-0.000800873
-5.11937e-05
-7.20636e-05
-0.000107408
-0.000152161
-0.000201662
-0.000252727
-0.000303523
-0.000352817
-0.000400507
-0.00044774
-0.000495453
-0.000543026
-0.000588686
-0.000630956
-0.000669515
-0.000704914
-0.00073783
-0.00076861
-0.000797319
-0.000824006
0.0101228
0.00635014
-0.000706991
-0.00657335
-0.00851799
-0.0076345
-0.00629575
-0.00557226
-0.005387
-0.00531733
-0.0051104
-0.00486284
-0.00465696
-0.00443339
-0.00433152
-0.00435124
-0.00422885
-0.00402205
-0.00394
-0.00393455
-0.00391614
-0.00385564
-0.00375922
-0.00370972
-0.00370978
-0.00365494
-0.00354237
-0.00346021
-0.00340256
-0.00329469
-0.00314973
-0.00302871
-0.0029127
-0.00276626
-0.00261833
-0.00248393
-0.00233919
-0.00219075
-0.00205621
-0.00191932
-0.00177023
-0.00162672
-0.00149437
-0.00135987
-0.00122028
-0.00108362
-0.000951362
-0.0008194
-0.000686788
-0.000555034
-0.000424305
-0.000293823
-0.000163305
-3.2805e-05
9.77808e-05
0.000228624
0.000359833
0.000491489
0.000623722
0.000756689
0.000890615
0.00102568
0.00116216
0.00130015
0.00143997
0.00158158
0.00172537
0.00187109
0.00201937
0.0021696
0.00232283
0.00247786
0.00263645
0.00279658
0.00296085
0.00312645
0.00329657
0.0034682
0.00364403
0.00382253
0.00400373
0.00419003
0.00437639
0.00457087
0.00476327
0.00496485
0.00516586
0.00537214
0.00558473
0.00579481
0.00601874
0.00623687
0.00646732
0.00670127
0.00693551
0.00718869
0.00743905
0.0077037
0.00802912
0.00835343
0.00946426
0.00622492
-0.000614035
-0.00643997
-0.00843404
-0.00759161
-0.00626873
-0.00555387
-0.00537403
-0.00530759
-0.00510243
-0.00485599
-0.00465111
-0.00442793
-0.00432645
-0.00434718
-0.00422538
-0.00401863
-0.00393688
-0.00393184
-0.00391375
-0.00385354
-0.00375727
-0.0037079
-0.00370826
-0.00365369
-0.00354123
-0.00345918
-0.00340176
-0.00329406
-0.00314916
-0.00302821
-0.00291232
-0.00276596
-0.00261807
-0.00248372
-0.00233904
-0.0021906
-0.00205609
-0.00191925
-0.00177017
-0.00162667
-0.00149433
-0.00135985
-0.00122027
-0.00108361
-0.000951354
-0.000819396
-0.000686787
-0.000555034
-0.000424307
-0.000293825
-0.000163307
-3.28074e-05
9.77785e-05
0.000228622
0.000359831
0.000491487
0.000623721
0.000756688
0.000890614
0.00102568
0.00116216
0.00130015
0.00143997
0.00158158
0.00172537
0.00187109
0.00201937
0.0021696
0.00232283
0.00247786
0.00263645
0.00279658
0.00296085
0.00312645
0.00329657
0.0034682
0.00364403
0.00382253
0.00400373
0.00419003
0.00437639
0.00457087
0.00476327
0.00496485
0.00516586
0.00537214
0.00558473
0.00579481
0.00601874
0.00623687
0.00646732
0.00670127
0.00693552
0.00718869
0.00743905
0.0077037
0.00802913
0.00835353
0.00885494
0.00614169
-0.000402308
-0.00618141
-0.00829032
-0.00753504
-0.00624018
-0.00553306
-0.00535757
-0.00529438
-0.00509169
-0.00484751
-0.00464463
-0.00442241
-0.0043214
-0.00434291
-0.0042216
-0.00401509
-0.00393382
-0.00392919
-0.00391135
-0.00385141
-0.00375529
-0.00370608
-0.00370674
-0.00365236
-0.00353997
-0.00345809
-0.00340091
-0.00329336
-0.0031485
-0.00302766
-0.00291191
-0.0027656
-0.00261775
-0.00248349
-0.00233885
-0.00219043
-0.00205596
-0.00191916
-0.00177009
-0.0016266
-0.00149428
-0.00135981
-0.00122024
-0.00108358
-0.00095134
-0.000819387
-0.000686781
-0.00055503
-0.000424305
-0.000293824
-0.000163307
-3.28078e-05
9.7778e-05
0.000228621
0.000359831
0.000491487
0.000623721
0.000756688
0.000890614
0.00102568
0.00116216
0.00130015
0.00143997
0.00158158
0.00172537
0.00187109
0.00201937
0.0021696
0.00232283
0.00247786
0.00263645
0.00279658
0.00296085
0.00312645
0.00329657
0.0034682
0.00364403
0.00382253
0.00400373
0.00419003
0.00437639
0.00457087
0.00476327
0.00496485
0.00516586
0.00537214
0.00558473
0.00579481
0.00601874
0.00623687
0.00646732
0.00670127
0.00693551
0.00718869
0.00743905
0.00770369
0.00802912
0.00835367
0.00829745
0.00606142
-0.000145119
-0.00586237
-0.0080993
-0.00745788
-0.00620018
-0.0055026
-0.00533263
-0.00527392
-0.00507508
-0.00483469
-0.00463541
-0.0044155
-0.00431517
-0.00433685
-0.00421607
-0.00401053
-0.0039301
-0.00392567
-0.00390791
-0.00384837
-0.00375264
-0.00370366
-0.0037045
-0.00365028
-0.00353806
-0.00345643
-0.00339952
-0.00329216
-0.00314744
-0.00302678
-0.00291119
-0.00276497
-0.00261722
-0.00248309
-0.00233853
-0.00219014
-0.00205572
-0.00191897
-0.00176994
-0.00162647
-0.00149419
-0.00135974
-0.00122018
-0.00108354
-0.000951309
-0.000819364
-0.000686763
-0.000555018
-0.000424297
-0.000293819
-0.000163304
-3.28061e-05
9.77788e-05
0.000228622
0.000359831
0.000491487
0.000623722
0.000756688
0.000890615
0.00102568
0.00116216
0.00130015
0.00143997
0.00158158
0.00172537
0.00187109
0.00201937
0.0021696
0.00232283
0.00247786
0.00263645
0.00279658
0.00296085
0.00312645
0.00329657
0.0034682
0.00364403
0.00382253
0.00400373
0.00419003
0.00437639
0.00457087
0.00476327
0.00496485
0.00516586
0.00537214
0.00558473
0.00579481
0.00601874
0.00623687
0.00646732
0.00670127
0.00693551
0.00718869
0.00743905
0.00770367
0.00802908
0.00835384
0.00774417
0.00593985
0.000108828
-0.00552807
-0.00789083
-0.00737156
-0.00615472
-0.00546534
-0.00529967
-0.0052455
-0.00505144
-0.00481605
-0.00462205
-0.00440636
-0.00430707
-0.00432795
-0.00420781
-0.00400446
-0.00392542
-0.00392081
-0.0039027
-0.00384371
-0.00374882
-0.00370013
-0.00370088
-0.00364677
-0.00353494
-0.00345366
-0.00339701
-0.00328995
-0.00314557
-0.0030252
-0.00290982
-0.00276378
-0.00261623
-0.00248232
-0.00233791
-0.00218961
-0.00205526
-0.00191859
-0.00176964
-0.00162625
-0.00149401
-0.00135958
-0.00122005
-0.00108344
-0.000951238
-0.000819308
-0.000686721
-0.000554988
-0.000424276
-0.000293805
-0.000163296
-3.28001e-05
9.77821e-05
0.000228624
0.000359832
0.000491488
0.000623722
0.000756688
0.000890615
0.00102568
0.00116216
0.00130015
0.00143997
0.00158158
0.00172537
0.00187109
0.00201937
0.0021696
0.00232283
0.00247786
0.00263645
0.00279658
0.00296085
0.00312645
0.00329657
0.0034682
0.00364403
0.00382253
0.00400372
0.00419003
0.00437639
0.00457087
0.00476327
0.00496485
0.00516586
0.00537214
0.00558473
0.00579481
0.00601874
0.00623687
0.00646731
0.00670127
0.00693551
0.00718868
0.00743904
0.00770364
0.00802899
0.00835405
0.00718799
0.00577067
0.000354588
-0.00518411
-0.00767037
-0.00728029
-0.00610855
-0.00542586
-0.00526234
-0.00521192
-0.00502283
-0.00479287
-0.00460508
-0.00439506
-0.00429699
-0.00431607
-0.00419669
-0.00399675
-0.00391973
-0.00391458
-0.00389556
-0.00383715
-0.00374359
-0.00369523
-0.00369547
-0.00364142
-0.00353028
-0.00344943
-0.00339296
-0.00328634
-0.00314256
-0.00302259
-0.00290748
-0.00276174
-0.00261455
-0.00248095
-0.00233681
-0.00218868
-0.00205443
-0.00191788
-0.00176909
-0.00162583
-0.00149365
-0.00135927
-0.0012198
-0.00108326
-0.000951093
-0.00081919
-0.000686629
-0.000554922
-0.000424229
-0.000293771
-0.000163273
-3.27852e-05
9.77908e-05
0.000228629
0.000359835
0.000491489
0.000623723
0.000756689
0.000890615
0.00102568
0.00116216
0.00130015
0.00143997
0.00158158
0.00172537
0.00187109
0.00201937
0.0021696
0.00232283
0.00247786
0.00263645
0.00279658
0.00296085
0.00312645
0.00329657
0.0034682
0.00364403
0.00382253
0.00400372
0.00419003
0.00437639
0.00457087
0.00476327
0.00496485
0.00516586
0.00537214
0.00558473
0.00579481
0.00601874
0.00623687
0.00646731
0.00670127
0.00693551
0.00718867
0.00743903
0.00770359
0.00802886
0.00835428
0.00663738
0.00556427
0.000594459
-0.00482983
-0.0074374
-0.00718392
-0.00606261
-0.00538585
-0.0052225
-0.00517517
-0.00499117
-0.00476688
-0.00458574
-0.00438213
-0.00428534
-0.00430194
-0.00418333
-0.00398761
-0.0039131
-0.0039072
-0.00388678
-0.00382889
-0.00373705
-0.00368898
-0.00368822
-0.00363412
-0.00352398
-0.00344363
-0.0033872
-0.00328116
-0.00313825
-0.00301879
-0.00290398
-0.00275869
-0.00261199
-0.00247884
-0.00233509
-0.00218724
-0.00205311
-0.00191672
-0.0017682
-0.00162515
-0.00149306
-0.00135874
-0.00121938
-0.00108294
-0.000950836
-0.000818976
-0.000686461
-0.000554795
-0.000424134
-0.000293701
-0.000163224
-3.2752e-05
9.78118e-05
0.000228639
0.000359842
0.000491493
0.000623724
0.000756689
0.000890615
0.00102568
0.00116216
0.00130015
0.00143997
0.00158158
0.00172537
0.00187109
0.00201937
0.0021696
0.00232283
0.00247786
0.00263645
0.00279658
0.00296085
0.00312645
0.00329657
0.0034682
0.00364403
0.00382253
0.00400372
0.00419003
0.00437639
0.00457087
0.00476327
0.00496485
0.00516586
0.00537214
0.00558473
0.00579481
0.00601874
0.00623686
0.00646731
0.00670127
0.0069355
0.00718866
0.00743902
0.00770353
0.00802868
0.0083545
0.00610528
0.00532765
0.00082414
-0.00446809
-0.00719187
-0.00708144
-0.00601673
-0.00534589
-0.00518082
-0.00513594
-0.00495724
-0.00473892
-0.00456471
-0.00436792
-0.00427255
-0.00428639
-0.0041685
-0.00397734
-0.00390565
-0.00389898
-0.00387688
-0.00381944
-0.00372952
-0.00368165
-0.00367945
-0.00362519
-0.00351625
-0.00343642
-0.00337991
-0.00327455
-0.00313275
-0.00301385
-0.00289935
-0.00275462
-0.00260855
-0.00247593
-0.00233273
-0.00218525
-0.00205127
-0.00191507
-0.00176692
-0.00162417
-0.00149219
-0.00135796
-0.00121875
-0.00108245
-0.000950437
-0.000818641
-0.000686192
-0.000554588
-0.000423975
-0.00029358
-0.000163134
-3.26895e-05
9.78533e-05
0.000228665
0.000359857
0.000491501
0.000623728
0.000756691
0.000890616
0.00102568
0.00116216
0.00130015
0.00143997
0.00158158
0.00172537
0.00187109
0.00201937
0.0021696
0.00232283
0.00247786
0.00263645
0.00279658
0.00296085
0.00312645
0.00329657
0.0034682
0.00364403
0.00382253
0.00400373
0.00419003
0.00437639
0.00457087
0.00476327
0.00496484
0.00516586
0.00537214
0.00558473
0.00579481
0.00601874
0.00623686
0.00646731
0.00670126
0.0069355
0.00718864
0.007439
0.00770346
0.00802845
0.00835473
0.00560177
0.00506309
0.00103512
-0.00410266
-0.00693283
-0.00697083
-0.00597016
-0.00530636
-0.00513773
-0.00509447
-0.0049213
-0.00470931
-0.00454223
-0.00435258
-0.00425893
-0.00426993
-0.0041526
-0.00396614
-0.00389748
-0.00389009
-0.00386622
-0.00380917
-0.00372127
-0.00367355
-0.00366964
-0.00361509
-0.00350747
-0.00342815
-0.00337145
-0.00326685
-0.00312632
-0.00300802
-0.0028938
-0.00274972
-0.00260436
-0.00247235
-0.00232977
-0.00218276
-0.00204894
-0.00191297
-0.00176526
-0.00162288
-0.00149105
-0.00135693
-0.00121791
-0.00108179
-0.00094989
-0.000818176
-0.000685814
-0.000554291
-0.000423741
-0.000293397
-0.000162996
-3.25895e-05
9.79226e-05
0.000228711
0.000359885
0.000491516
0.000623736
0.000756694
0.000890617
0.00102568
0.00116216
0.00130015
0.00143997
0.00158158
0.00172537
0.00187109
0.00201937
0.0021696
0.00232283
0.00247786
0.00263645
0.00279658
0.00296085
0.00312645
0.00329657
0.00346819
0.00364404
0.00382253
0.00400373
0.00419003
0.00437639
0.00457087