/*--------------------------------*- C++ -*----------------------------------*\
| =========                 |                                                 |
| \\      /  F ield         | OpenFOAM: The Open Source CFD Toolbox           |
|  \\    /   O peration     | Version:  3.0.1                                 |
|   \\  /    A nd           | Web:      www.OpenFOAM.org                      |
|    \\/     M anipulation  |                                                 |
\*---------------------------------------------------------------------------*/
FoamFile
{
    version     2.0;
    format      ascii;
    class       surfaceScalarField;
    location    "0.2";
    object      phi;
}
// * * * * * * * * * * * * * * * * * * * * * * * * * * * * * * * * * * * * * //

dimensions      [0 3 -1 0 0 0 0];

internalField   nonuniform List<scalar> 
19000
(
1.17524e-06
-1.3903e-08
1.16803e-06
-1.12632e-07
1.1805e-06
-2.0138e-07
1.16576e-06
8.92497e-08
1.1686e-06
4.07912e-07
1.15975e-06
5.55857e-07
1.16215e-06
1.83014e-07
1.1359e-06
-3.98968e-07
1.17203e-06
-4.74096e-07
1.15248e-06
-6.20094e-07
1.13829e-06
-5.9521e-07
1.15364e-06
-1.62317e-07
1.16767e-06
-9.94665e-08
1.16163e-06
5.50085e-08
1.16831e-06
1.71701e-07
1.15103e-06
6.27688e-08
1.1616e-06
3.95525e-07
1.13481e-06
1.25354e-07
1.14069e-06
2.68104e-07
1.19494e-07
1.10393e-06
1.23013e-06
-1.97755e-08
1.2241e-06
-1.06595e-07
1.23693e-06
-2.14217e-07
1.2244e-06
1.01784e-07
1.22198e-06
4.10335e-07
1.22141e-06
5.56429e-07
1.21758e-06
1.86839e-07
1.19594e-06
-3.77327e-07
1.22584e-06
-5.03991e-07
1.20967e-06
-6.03928e-07
1.19521e-06
-5.80748e-07
1.21232e-06
-1.79432e-07
1.22146e-06
-1.08606e-07
1.22432e-06
5.21499e-08
1.21984e-06
1.76184e-07
1.21544e-06
6.7169e-08
1.20619e-06
4.04777e-07
1.20447e-06
1.27072e-07
1.1811e-06
2.91471e-07
1.11544e-07
1.18905e-06
1.28634e-06
-2.33319e-08
1.28396e-06
-1.0422e-07
1.29421e-06
-2.24466e-07
1.28702e-06
1.08973e-07
1.27841e-06
4.18949e-07
1.28515e-06
5.4969e-07
1.27709e-06
1.94893e-07
1.2617e-06
-3.61934e-07
1.28086e-06
-5.23146e-07
1.27319e-06
-5.9626e-07
1.25438e-06
-5.61938e-07
1.27213e-06
-1.97182e-07
1.27643e-06
-1.12909e-07
1.28636e-06
4.22186e-08
1.27677e-06
1.85773e-07
1.27594e-06
6.80016e-08
1.26857e-06
4.12148e-07
1.26639e-06
1.29249e-07
1.25583e-06
3.02031e-07
1.19821e-07
1.24755e-06
1.34472e-06
-2.39444e-08
1.34649e-06
-1.05995e-07
1.35282e-06
-2.30793e-07
1.35114e-06
1.10654e-07
1.33889e-06
4.31193e-07
1.34877e-06
5.39811e-07
1.34e-06
2.03661e-07
1.32976e-06
-3.51689e-07
1.33779e-06
-5.31174e-07
1.33686e-06
-5.95331e-07
1.31739e-06
-5.42468e-07
1.331e-06
-2.10791e-07
1.33513e-06
-1.17042e-07
1.34527e-06
3.20765e-08
1.33898e-06
1.92068e-07
1.33543e-06
7.15507e-08
1.33485e-06
4.12722e-07
1.33005e-06
1.34054e-07
1.32797e-06
3.04111e-07
1.33479e-07
1.31431e-06
1.40638e-06
-2.19679e-08
1.41096e-06
-1.10576e-07
1.41347e-06
-2.33307e-07
1.41526e-06
1.08868e-07
1.40356e-06
4.4289e-07
1.41312e-06
5.30248e-07
1.40659e-06
2.102e-07
1.39903e-06
-3.44136e-07
1.39852e-06
-5.30657e-07
1.39993e-06
-5.96747e-07
1.38414e-06
-5.26677e-07
1.3926e-06
-2.19246e-07
1.39741e-06
-1.21856e-07
1.4062e-06
2.3288e-08
1.40384e-06
1.94421e-07
1.39897e-06
7.64285e-08
1.40179e-06
4.09896e-07
1.3967e-06
1.3915e-07
1.39863e-06
3.02175e-07
1.48383e-07
1.38373e-06
1.47228e-06
-1.85689e-08
1.47747e-06
-1.15771e-07
1.47716e-06
-2.32991e-07
1.48001e-06
1.0601e-07
1.47205e-06
4.50858e-07
1.48014e-06
5.22154e-07
1.47695e-06
2.13391e-07
1.47033e-06
-3.3752e-07
1.46418e-06
-5.24499e-07
1.4648e-06
-5.97369e-07
1.45349e-06
-5.15366e-07
1.459e-06
-2.24763e-07
1.46305e-06
-1.259e-07
1.47091e-06
1.5426e-08
1.47124e-06
1.9409e-07
1.46692e-06
8.07447e-08
1.47201e-06
4.04812e-07
1.46664e-06
1.44517e-07
1.47149e-06
2.97324e-07
1.63877e-07
1.456e-06
1.54271e-06
-1.50655e-08
1.54675e-06
-1.19813e-07
1.54461e-06
-2.30847e-07
1.54709e-06
1.03533e-07
1.54394e-06
4.54006e-07
1.55131e-06
5.14779e-07
1.55095e-06
2.13757e-07
1.54462e-06
-3.31189e-07
1.53481e-06
-5.14698e-07
1.53328e-06
-5.95834e-07
1.52489e-06
-5.06979e-07
1.5297e-06
-2.29566e-07
1.53245e-06
-1.28656e-07
1.53948e-06
8.39988e-09
1.54164e-06
1.91925e-07
1.53859e-06
8.37943e-08
1.54597e-06
3.97435e-07
1.53989e-06
1.50601e-07
1.54682e-06
2.90394e-07
1.79642e-07
1.53105e-06
1.61738e-06
-1.2312e-08
1.61955e-06
-1.21985e-07
1.61614e-06
-2.27441e-07
1.61793e-06
1.01742e-07
1.61911e-06
4.52825e-07
1.62705e-06
5.06845e-07
1.62841e-06
2.12395e-07
1.62226e-06
-3.25039e-07
1.61003e-06
-5.02463e-07
1.60598e-06
-5.91784e-07
1.59876e-06
-4.99764e-07
1.60376e-06
-2.34566e-07
1.60575e-06
-1.30646e-07
1.61199e-06
2.15911e-09
1.61543e-06
1.88491e-07
1.61351e-06
8.5713e-08
1.62309e-06
3.87849e-07
1.61603e-06
1.57668e-07
1.62429e-06
2.82128e-07
1.95377e-07
1.60856e-06
1.69579e-06
-1.05258e-08
1.69628e-06
-1.22481e-07
1.69182e-06
-2.22975e-07
1.69324e-06
1.00322e-07
1.69766e-06
4.48401e-07
1.70694e-06
4.97566e-07
1.70915e-06
2.10182e-07
1.70322e-06
-3.19107e-07
1.68939e-06
-4.88633e-07
1.68294e-06
-5.85331e-07
1.67574e-06
-4.92567e-07
1.68083e-06
-2.39656e-07
1.68261e-06
-1.32425e-07
1.68827e-06
-3.50093e-09
1.69267e-06
1.84088e-07
1.69137e-06
8.70144e-08
1.70286e-06
3.76357e-07
1.69467e-06
1.65859e-07
1.70367e-06
2.73133e-07
2.1065e-07
1.68839e-06
1.77771e-06
-9.51062e-09
1.77711e-06
-1.21882e-07
1.77168e-06
-2.1755e-07
1.77308e-06
9.89281e-08
1.77965e-06
4.4183e-07
1.79038e-06
4.86831e-07
1.793e-06
2.07568e-07
1.78734e-06
-3.13454e-07
1.77261e-06
-4.739e-07
1.76415e-06
-5.7687e-07
1.75633e-06
-4.84748e-07
1.7609e-06
-2.44224e-07
1.76259e-06
-1.3412e-07
1.76775e-06
-8.65902e-09
1.77302e-06
1.78825e-07
1.77179e-06
8.82427e-08
1.78481e-06
3.63336e-07
1.77556e-06
1.7511e-07
1.78476e-06
2.6393e-07
2.24829e-07
1.77058e-06
1.8632e-06
-8.96437e-09
1.86205e-06
-1.20733e-07
1.85582e-06
-2.11319e-07
1.85732e-06
9.74306e-08
1.86511e-06
4.34043e-07
1.87702e-06
4.74922e-07
1.87991e-06
2.04676e-07
1.87458e-06
-3.08123e-07
1.85953e-06
-4.58851e-07
1.84963e-06
-5.6697e-07
1.84087e-06
-4.75991e-07
1.84415e-06
-2.47505e-07
1.84553e-06
-1.355e-07
1.84996e-06
-1.3088e-08
1.85597e-06
1.72819e-07
1.85438e-06
8.98335e-08
1.86855e-06
3.49168e-07
1.85859e-06
1.85067e-07
1.86757e-06
2.54948e-07
2.37132e-07
1.85527e-06
1.95253e-06
-8.65438e-09
1.95118e-06
-1.19383e-07
1.94434e-06
-2.04481e-07
1.9459e-06
9.58668e-08
1.95419e-06
4.25758e-07
1.9669e-06
4.62208e-07
1.97011e-06
2.01471e-07
1.96508e-06
-3.03091e-07
1.95014e-06
-4.43912e-07
1.93937e-06
-5.56199e-07
1.92961e-06
-4.66235e-07
1.93095e-06
-2.48843e-07
1.93169e-06
-1.36245e-07
1.93496e-06
-1.63515e-08
1.94147e-06
1.66305e-07
1.93922e-06
9.20842e-08
1.95414e-06
3.34248e-07
1.9441e-06
1.95111e-07
1.95251e-06
2.46532e-07
2.46784e-07
1.94286e-06
2.04598e-06
-8.44688e-09
2.0446e-06
-1.17997e-07
2.03733e-06
-1.97217e-07
2.0389e-06
9.43013e-08
2.04722e-06
4.17431e-07
2.06044e-06
4.48987e-07
2.06401e-06
1.97905e-07
2.05917e-06
-2.9825e-07
2.04458e-06
-4.29318e-07
2.03333e-06
-5.4495e-07
2.02274e-06
-4.55654e-07
2.02178e-06
-2.47881e-07
2.02172e-06
-1.36187e-07
2.02342e-06
-1.80508e-08
2.03014e-06
1.5959e-07
2.0271e-06
9.51193e-08
2.04234e-06
3.19007e-07
2.03292e-06
2.04532e-07
2.04054e-06
2.38914e-07
2.53267e-07
2.03406e-06
2.14383e-06
-8.27423e-09
2.14247e-06
-1.16637e-07
2.1349e-06
-1.89647e-07
2.13645e-06
9.27486e-08
2.14463e-06
4.09257e-07
2.15817e-06
4.35446e-07
2.16209e-06
1.93981e-07
2.15728e-06
-2.93436e-07
2.14311e-06
-4.15148e-07
2.1315e-06
-5.33345e-07
2.12043e-06
-4.44586e-07
2.11717e-06
-2.4462e-07
2.11638e-06
-1.35397e-07
2.11637e-06
-1.80401e-08
2.12301e-06
1.52952e-07
2.11927e-06
9.88531e-08
2.13437e-06
3.0391e-07
2.12618e-06
2.12721e-07
2.13286e-06
2.32237e-07
2.56483e-07
2.12964e-06
2.24632e-06
-8.10156e-09
2.245e-06
-1.15319e-07
2.23718e-06
-1.81831e-07
2.23876e-06
9.11736e-08
2.24677e-06
4.01242e-07
2.26053e-06
4.21685e-07
2.26477e-06
1.89746e-07
2.2598e-06
-2.8847e-07
2.24606e-06
-4.0141e-07
2.23399e-06
-5.21272e-07
2.22282e-06
-4.33418e-07
2.21753e-06
-2.39328e-07
2.21625e-06
-1.34118e-07
2.2147e-06
-1.64899e-08
2.22107e-06
1.46587e-07
2.21691e-06
1.0301e-07
2.23142e-06
2.89404e-07
2.22485e-06
2.19291e-07
2.23058e-06
2.26509e-07
2.56786e-07
2.23027e-06
2.35368e-06
-7.90917e-09
2.35241e-06
-1.14048e-07
2.34437e-06
-1.73788e-07
2.34601e-06
8.95288e-08
2.35395e-06
3.93304e-07
2.36787e-06
4.07766e-07
2.37238e-06
1.85241e-07
2.36709e-06
-2.83187e-07
2.3538e-06
-3.88119e-07
2.34103e-06
-5.08498e-07
2.33009e-06
-4.22479e-07
2.32314e-06
-2.32379e-07
2.32164e-06
-1.3262e-07
2.31896e-06
-1.38041e-08
2.32491e-06
1.40635e-07
2.32073e-06
1.07194e-07
2.33427e-06
2.75863e-07
2.32946e-06
2.24099e-07
2.33431e-06
2.21664e-07
2.54772e-07
2.33632e-06
2.46617e-06
-7.68544e-09
2.46495e-06
-1.12827e-07
2.45669e-06
-1.65525e-07
2.45843e-06
8.77828e-08
2.46639e-06
3.85347e-07
2.48041e-06
3.93746e-07
2.48518e-06
1.80475e-07
2.47943e-06
-2.77443e-07
2.46664e-06
-3.75326e-07
2.45293e-06
-4.94791e-07
2.44243e-06
-4.11981e-07
2.4342e-06
-2.24143e-07
2.43264e-06
-1.31064e-07
2.42932e-06
-1.04864e-08
2.43472e-06
1.35239e-07
2.43091e-06
1.11006e-07
2.44326e-06
2.63507e-07
2.44013e-06
2.27236e-07
2.44423e-06
2.17557e-07
2.51062e-07
2.44794e-06
2.58403e-06
-7.42404e-09
2.58287e-06
-1.11663e-07
2.5744e-06
-1.57054e-07
2.57625e-06
8.59302e-08
2.5843e-06
3.77294e-07
2.59835e-06
3.79699e-07
2.60341e-06
1.75413e-07
2.59708e-06
-2.71112e-07
2.58486e-06
-3.63101e-07
2.57005e-06
-4.79988e-07
2.56008e-06
-4.02007e-07
2.55088e-06
-2.14945e-07
2.54926e-06
-1.29438e-07
2.5458e-06
-7.03376e-09
2.55048e-06
1.30567e-07
2.54733e-06
1.14154e-07
2.5585e-06
2.52336e-07
2.55672e-06
2.2901e-07
2.56035e-06
2.13934e-07
2.46198e-07
2.56521e-06
2.70753e-06
-7.12237e-09
2.70642e-06
-1.1056e-07
2.69776e-06
-1.48394e-07
2.69971e-06
8.39893e-08
2.70792e-06
3.69082e-07
2.72189e-06
3.65722e-07
2.72732e-06
1.69984e-07
2.7203e-06
-2.64087e-07
2.70871e-06
-3.51511e-07
2.69275e-06
-4.64033e-07
2.68327e-06
-3.92524e-07
2.6734e-06
-2.05081e-07
2.67156e-06
-1.27591e-07
2.6684e-06
-3.87181e-09
2.67217e-06
1.26795e-07
2.66982e-06
1.16499e-07
2.67999e-06
2.42165e-07
2.6792e-06
2.29801e-07
2.6826e-06
2.10535e-07
2.40573e-07
2.68823e-06
2.83693e-06
-6.78079e-09
2.83589e-06
-1.09518e-07
2.82707e-06
-1.39581e-07
2.82906e-06
8.19969e-08
2.83749e-06
3.60659e-07
2.85128e-06
3.51926e-07
2.85717e-06
1.64102e-07
2.84936e-06
-2.56276e-07
2.83844e-06
-3.40594e-07
2.82137e-06
-4.46969e-07
2.81225e-06
-3.83399e-07
2.80202e-06
-1.94855e-07
2.7997e-06
-1.2527e-07
2.79716e-06
-1.32414e-09
2.79993e-06
1.24024e-07
2.79833e-06
1.18098e-07
2.8078e-06
2.32694e-07
2.80769e-06
2.29914e-07
2.811e-06
2.0722e-07
2.34386e-07
2.81719e-06
2.97252e-06
-6.40234e-09
2.97153e-06
-1.08535e-07
2.96261e-06
-1.3066e-07
2.9646e-06
8.00045e-08
2.9733e-06
3.51968e-07
2.98679e-06
3.38431e-07
2.99321e-06
1.57677e-07
2.98456e-06
-2.47621e-07
2.9743e-06
-3.30339e-07
2.95626e-06
-4.28927e-07
2.94728e-06
-3.74419e-07
2.93702e-06
-1.84593e-07
2.93394e-06
-1.22189e-07
2.93221e-06
4.01036e-10
2.934e-06
1.22236e-07
2.93292e-06
1.19184e-07
2.94202e-06
2.23594e-07
2.94243e-06
2.29497e-07
2.94565e-06
2.03999e-07
2.277e-07
2.95234e-06
3.1146e-06
-5.993e-09
3.11366e-06
-1.07597e-07
3.10469e-06
-1.2169e-07
3.10662e-06
7.80767e-08
3.11563e-06
3.42951e-07
3.12871e-06
3.2536e-07
3.13574e-06
1.50638e-07
3.12623e-06
-2.38104e-07
3.11656e-06
-3.20675e-07
3.09776e-06
-4.10122e-07
3.08864e-06
-3.65297e-07
3.07869e-06
-1.74647e-07
3.07457e-06
-1.1807e-07
3.07375e-06
1.2196e-09
3.07474e-06
1.21251e-07
3.07381e-06
1.20108e-07
3.0828e-06
2.14604e-07
3.08376e-06
2.28538e-07
3.08677e-06
2.0099e-07
2.20523e-07
3.09395e-06
3.26348e-06
-5.56193e-09
3.26257e-06
-1.06684e-07
3.25362e-06
-1.12743e-07
3.25541e-06
7.62904e-08
3.26481e-06
3.33544e-07
3.27735e-06
3.12823e-07
3.28504e-06
1.42945e-07
3.2747e-06
-2.27765e-07
3.26549e-06
-3.11464e-07
3.24621e-06
-3.9084e-07
3.23662e-06
-3.55706e-07
3.22732e-06
-1.65347e-07
3.22197e-06
-1.12717e-07
3.22196e-06
1.22873e-09
3.22248e-06
1.2073e-07
3.22139e-06
1.21199e-07
3.23036e-06
2.05627e-07
3.23201e-06
2.26893e-07
3.23466e-06
1.98341e-07
2.12897e-07
3.24229e-06
3.41949e-06
-5.12166e-09
3.41857e-06
-1.05765e-07
3.40974e-06
-1.03906e-07
3.41129e-06
7.47336e-08
3.42115e-06
3.23686e-07
3.43306e-06
3.00909e-07
3.4414e-06
1.34609e-07
3.43034e-06
-2.16707e-07
3.42139e-06
-3.02513e-07
3.40196e-06
-3.71407e-07
3.39158e-06
-3.45324e-07
3.38317e-06
-1.56939e-07
3.37655e-06
-1.06094e-07
3.37706e-06
7.1501e-10
3.37751e-06
1.20282e-07
3.37609e-06
1.22621e-07
3.38495e-06
1.96767e-07
3.38749e-06
2.24346e-07
3.38969e-06
1.96145e-07
2.04964e-07
3.39762e-06
3.58298e-06
-4.68825e-09
3.58201e-06
-1.04797e-07
3.57338e-06
-9.52808e-08
3.57462e-06
7.35019e-08
3.58498e-06
3.13323e-07
3.59621e-06
2.89677e-07
3.60512e-06
1.25702e-07
3.59352e-06
-2.05107e-07
3.58458e-06
-2.93575e-07
3.56534e-06
-3.5217e-07
3.55388e-06
-3.3386e-07
3.54647e-06
-1.49529e-07
3.53876e-06
-9.83853e-08
3.53939e-06
8.47744e-11
3.5401e-06
1.19571e-07
3.53833e-06
1.24388e-07
3.5469e-06
1.882e-07
3.5505e-06
2.20744e-07
3.55227e-06
1.9438e-07
1.96976e-07
3.56026e-06
3.7543e-06
-4.28139e-09
3.75323e-06
-1.03724e-07
3.74493e-06
-8.69834e-08
3.74574e-06
7.26913e-08
3.75664e-06
3.02418e-07
3.76717e-06
2.79149e-07
3.77651e-06
1.1636e-07
3.76462e-06
-1.9321e-07
3.75541e-06
-2.84366e-07
3.73671e-06
-3.33472e-07
3.72396e-06
-3.21115e-07
3.71747e-06
-1.4304e-07
3.70903e-06
-8.99395e-08
3.70936e-06
-2.4704e-10
3.71055e-06
1.18386e-07
3.70854e-06
1.26388e-07
3.71664e-06
1.80101e-07
3.72134e-06
2.16044e-07
3.72283e-06
1.92894e-07
1.89246e-07
3.73056e-06
3.93383e-06
-3.92429e-09
3.93258e-06
-1.02475e-07
3.92474e-06
-7.91375e-08
3.92504e-06
7.23867e-08
3.9365e-06
2.90963e-07
3.94635e-06
2.69299e-07
3.95592e-06
1.06785e-07
3.94403e-06
-1.81316e-07
3.93426e-06
-2.74597e-07
3.91635e-06
-3.15564e-07
3.90233e-06
-3.07091e-07
3.89646e-06
-1.37174e-07
3.88772e-06
-8.11974e-08
3.88746e-06
1.53468e-11
3.88914e-06
1.167e-07
3.88711e-06
1.28423e-07
3.89461e-06
1.72602e-07
3.90033e-06
2.10323e-07
3.90178e-06
1.91442e-07
1.82084e-07
3.90894e-06
4.12197e-06
-3.64422e-09
4.12046e-06
-1.00965e-07
4.1132e-06
-7.18739e-08
4.11293e-06
7.26522e-08
4.1249e-06
2.7899e-07
4.13416e-06
2.60046e-07
4.1437e-06
9.72462e-08
4.13215e-06
-1.69774e-07
4.12156e-06
-2.64001e-07
4.10456e-06
-2.98571e-07
4.08946e-06
-2.91982e-07
4.08382e-06
-1.31535e-07
4.07517e-06
-7.25494e-08
4.07417e-06
1.0114e-09
4.07626e-06
1.14609e-07
4.0744e-06
1.30283e-07
4.08123e-06
1.65777e-07
4.08782e-06
2.03728e-07
4.08952e-06
1.89747e-07
1.75733e-07
4.09587e-06
4.31913e-06
-3.47201e-09
4.31726e-06
-9.90945e-08
4.31071e-06
-6.53202e-08
4.30984e-06
7.35175e-08
4.32225e-06
2.66577e-07
4.33104e-06
2.51257e-07
4.34024e-06
8.80477e-08
4.32939e-06
-1.58926e-07
4.31777e-06
-2.52382e-07
4.30165e-06
-2.82449e-07
4.28582e-06
-2.76148e-07
4.28001e-06
-1.25729e-07
4.27169e-06
-6.4225e-08
4.27e-06
2.69602e-09
4.27235e-06
1.12259e-07
4.27081e-06
1.31823e-07
4.27696e-06
1.59631e-07
4.28424e-06
1.96449e-07
4.28644e-06
1.87545e-07
1.70321e-07
4.29185e-06
4.52574e-06
-3.44091e-09
4.52341e-06
-9.67591e-08
4.51767e-06
-5.95845e-08
4.51623e-06
7.49601e-08
4.52894e-06
2.53865e-07
4.53745e-06
2.42746e-07
4.54599e-06
7.95068e-08
4.53611e-06
-1.4904e-07
4.52342e-06
-2.39693e-07
4.50796e-06
-2.66992e-07
4.49184e-06
-2.60024e-07
4.48559e-06
-1.19485e-07
4.4776e-06
-5.62338e-08
4.47542e-06
4.87578e-09
4.47789e-06
1.09786e-07
4.47675e-06
1.32967e-07
4.48226e-06
1.54123e-07
4.49e-06
1.88704e-07
4.49293e-06
1.84618e-07
1.65826e-07
4.49743e-06
4.74226e-06
-3.58643e-09
4.73935e-06
-9.38489e-08
4.73451e-06
-5.47485e-08
4.73258e-06
7.68923e-08
4.74539e-06
2.41053e-07
4.75385e-06
2.34295e-07
4.76144e-06
7.1912e-08
4.75266e-06
-1.40264e-07
4.73904e-06
-2.2607e-07
4.72391e-06
-2.51863e-07
4.70791e-06
-2.44017e-07
4.70111e-06
-1.12687e-07
4.69334e-06
-4.84618e-08
4.69086e-06
7.35569e-09
4.69341e-06
1.07231e-07
4.69268e-06
1.33697e-07
4.69759e-06
1.49219e-07
4.7056e-06
1.8069e-07
4.70939e-06
1.80828e-07
1.62078e-07
4.71314e-06
4.96916e-06
-3.94437e-09
4.96557e-06
-9.02586e-08
4.96168e-06
-5.08585e-08
4.95941e-06
7.91602e-08
4.97206e-06
2.28396e-07
4.9807e-06
2.25665e-07
4.98709e-06
6.55128e-08
4.97944e-06
-1.32614e-07
4.96521e-06
-2.11831e-07
4.95002e-06
-2.36674e-07
4.93439e-06
-2.28388e-07
4.92714e-06
-1.05437e-07
4.9194e-06
-4.07256e-08
4.91672e-06
1.0032e-08
4.91941e-06
1.04548e-07
4.91912e-06
1.33987e-07
4.92344e-06
1.44897e-07
4.93151e-06
1.72623e-07
4.93622e-06
1.76114e-07
1.58799e-07
4.9395e-06
5.20692e-06
-4.54816e-09
5.20256e-06
-8.59016e-08
5.19962e-06
-4.79111e-08
5.19724e-06
8.15405e-08
5.20943e-06
2.16198e-07
5.21848e-06
2.16615e-07
5.22353e-06
6.04657e-08
5.21683e-06
-1.25919e-07
5.20245e-06
-1.97444e-07
5.18684e-06
-2.21062e-07
5.17165e-06
-2.13203e-07
5.16424e-06
-9.8023e-08
5.15636e-06
-3.28529e-08
5.15347e-06
1.29279e-08
5.1564e-06
1.01612e-07
5.15654e-06
1.33853e-07
5.16036e-06
1.41074e-07
5.16828e-06
1.64703e-07
5.17385e-06
1.70541e-07
1.55661e-07
5.17699e-06
5.45607e-06
-5.42454e-09
5.45089e-06
-8.07217e-08
5.44882e-06
-4.58473e-08
5.44661e-06
8.37476e-08
5.45802e-06
2.04793e-07
5.46768e-06
2.06952e-07
5.47136e-06
5.67859e-08
5.46529e-06
-1.19843e-07
5.45125e-06
-1.83402e-07
5.43504e-06
-2.04853e-07
5.42015e-06
-1.98317e-07
5.41286e-06
-9.07303e-08
5.40491e-06
-2.49068e-08
5.40159e-06
1.62491e-08
5.40485e-06
9.83502e-08
5.40552e-06
1.33183e-07
5.40887e-06
1.37724e-07
5.4165e-06
1.5707e-07
5.42275e-06
1.64299e-07
1.52323e-07
5.42608e-06
5.71713e-06
-6.5922e-09
5.71111e-06
-7.47021e-08
5.7098e-06
-4.45431e-08
5.70809e-06
8.54569e-08
5.7184e-06
1.94483e-07
5.72877e-06
1.96587e-07
5.73123e-06
5.43217e-08
5.72533e-06
-1.13938e-07
5.71206e-06
-1.7014e-07
5.69528e-06
-1.88071e-07
5.68041e-06
-1.83444e-07
5.67345e-06
-8.37716e-08
5.66566e-06
-1.71181e-08
5.66176e-06
2.01546e-08
5.6652e-06
9.49045e-08
5.66661e-06
1.3178e-07
5.66957e-06
1.34758e-07
5.67676e-06
1.49883e-07
5.68346e-06
1.57596e-07
1.48537e-07
5.68725e-06
5.99066e-06
-8.05965e-09
5.98383e-06
-6.78688e-08
5.98309e-06
-4.38097e-08
5.98223e-06
8.63177e-08
5.9912e-06
1.85513e-07
6.00221e-06
1.85578e-07
6.00379e-06
5.27473e-08
5.99756e-06
-1.07713e-07
5.98534e-06
-1.57915e-07
5.96828e-06
-1.7102e-07
5.95303e-06
-1.68193e-07
5.94649e-06
-7.72303e-08
5.9392e-06
-9.82582e-09
5.93467e-06
2.46838e-08
5.93805e-06
9.15277e-08
5.94025e-06
1.29576e-07
5.94306e-06
1.31945e-07
5.94968e-06
1.43266e-07
5.95659e-06
1.50691e-07
1.44119e-07
5.96101e-06
6.27725e-06
-9.82139e-09
6.26967e-06
-6.02917e-08
6.26926e-06
-4.33986e-08
6.26959e-06
8.59856e-08
6.2771e-06
1.78005e-07
6.28851e-06
1.74169e-07
6.28964e-06
5.16157e-08
6.28269e-06
-1.00758e-07
6.27151e-06
-1.46742e-07
6.25466e-06
-1.54162e-07
6.23881e-06
-1.5235e-07
6.23247e-06
-7.08869e-08
6.22602e-06
-3.37544e-09
6.22108e-06
2.96218e-08
6.22403e-06
8.85835e-08
6.227e-06
1.26607e-07
6.2299e-06
1.29036e-07
6.23597e-06
1.37203e-07
6.24279e-06
1.4387e-07
1.39015e-07
6.24789e-06
6.5775e-06
-1.18551e-08
6.5693e-06
-5.20926e-08
6.56892e-06
-4.30146e-08
6.57074e-06
8.41664e-08
6.57682e-06
1.71927e-07
6.58821e-06
1.62773e-07
6.58941e-06
5.04228e-08
6.58145e-06
-9.28045e-08
6.57112e-06
-1.36414e-07
6.555e-06
-1.38035e-07
6.53855e-06
-1.35907e-07
6.53201e-06
-6.43463e-08
6.52662e-06
2.01867e-09
6.52164e-06
3.46063e-08
6.52394e-06
8.6283e-08
6.52745e-06
1.23093e-07
6.53056e-06
1.25926e-07
6.5363e-06
1.3146e-07
6.5428e-06
1.37373e-07
1.33367e-07
6.54845e-06
6.89206e-06
-1.41224e-08
6.8834e-06
-4.34339e-08
6.88273e-06
-4.2347e-08
6.88625e-06
8.06497e-08
6.89109e-06
1.67082e-07
6.90194e-06
1.51922e-07
6.90365e-06
4.87129e-08
6.89467e-06
-8.38237e-08
6.88476e-06
-1.265e-07
6.86985e-06
-1.23122e-07
6.85302e-06
-1.19081e-07
6.84586e-06
-5.71834e-08
6.84155e-06
6.32476e-09
6.8369e-06
3.92556e-08
6.83858e-06
8.46086e-08
6.84231e-06
1.19363e-07
6.84561e-06
1.22625e-07
6.85127e-06
1.25795e-07
6.85735e-06
1.31292e-07
1.27445e-07
6.86328e-06
7.22158e-06
-1.65638e-08
7.21267e-06
-3.45245e-08
7.21141e-06
-4.10854e-08
7.21672e-06
7.53355e-08
7.2207e-06
1.63107e-07
7.2304e-06
1.4222e-07
7.23296e-06
4.6147e-08
7.2232e-06
-7.40544e-08
7.21312e-06
-1.16425e-07
7.1997e-06
-1.09702e-07
7.18297e-06
-1.02347e-07
7.17491e-06
-4.91263e-08
7.17135e-06
9.88243e-09
7.16748e-06
4.31235e-08
7.16866e-06
8.34348e-08
7.17236e-06
1.15657e-07
7.17577e-06
1.19219e-07
7.18138e-06
1.20187e-07
7.18723e-06
1.25442e-07
1.21617e-07
7.19305e-06
7.56676e-06
-1.90985e-08
7.55786e-06
-2.56192e-08
7.5557e-06
-3.89334e-08
7.56279e-06
6.82479e-08
7.56638e-06
1.5952e-07
7.57439e-06
1.3421e-07
7.57789e-06
4.26444e-08
7.56785e-06
-6.40163e-08
7.55705e-06
-1.05624e-07
7.5451e-06
-9.77469e-08
7.52913e-06
-8.638e-08
7.52006e-06
-4.00533e-08
7.51675e-06
1.31844e-08
7.51392e-06
4.59573e-08
7.51487e-06
8.24812e-08
7.51847e-06
1.12064e-07
7.52181e-06
1.15878e-07
7.52721e-06
1.14785e-07
7.53314e-06
1.19518e-07
1.16193e-07
7.53856e-06
7.92834e-06
-2.16286e-08
7.91972e-06
-1.69972e-08
7.91643e-06
-3.56401e-08
7.92514e-06
5.95347e-08
7.92888e-06
1.55778e-07
7.9348e-06
1.28292e-07
7.93901e-06
3.84324e-08
7.92942e-06
-5.44278e-08
7.9175e-06
-9.37015e-08
7.90662e-06
-8.68633e-08
7.89213e-06
-7.18894e-08
7.88224e-06
-3.01708e-08
7.87864e-06
1.67882e-08
7.87676e-06
4.78357e-08
7.87792e-06
8.1322e-08
7.88138e-06
1.08604e-07
7.88456e-06
1.12695e-07
7.88961e-06
1.09735e-07
7.89566e-06
1.13474e-07
1.11119e-07
7.90073e-06
8.30709e-06
-2.40357e-08
8.29905e-06
-8.96045e-09
8.29445e-06
-3.10362e-08
8.30446e-06
4.95211e-08
8.30896e-06
1.51279e-07
8.31259e-06
1.24667e-07
8.31698e-06
3.4038e-08
8.30862e-06
-4.60687e-08
8.29553e-06
-8.06068e-08
8.28505e-06
-7.63829e-08
8.27243e-06
-5.92747e-08
8.26239e-06
-2.01347e-08
8.25804e-06
2.11452e-08
8.25673e-06
4.91442e-08
8.25844e-06
7.96087e-08
8.26188e-06
1.0517e-07
8.26489e-06
1.09685e-07
8.26945e-06
1.05173e-07
8.27548e-06
1.0744e-07
1.06167e-07
8.28043e-06
8.70381e-06
-2.61881e-08
8.69668e-06
-1.82432e-09
8.69066e-06
-2.50175e-08
8.70154e-06
3.86371e-08
8.70733e-06
1.45494e-07
8.70873e-06
1.23263e-07
8.71262e-06
3.01544e-08
8.70603e-06
-3.94826e-08
8.69222e-06
-6.67956e-08
8.68132e-06
-6.54809e-08
8.67062e-06
-4.85803e-08
8.66125e-06
-1.0758e-08
8.65607e-06
2.63237e-08
8.65474e-06
5.04767e-08
8.65701e-06
7.73374e-08
8.66076e-06
1.0142e-07
8.66365e-06
1.06795e-07
8.66757e-06
1.01251e-07
8.67349e-06
1.01521e-07
1.01321e-07
8.67833e-06
9.11938e-06
-2.7945e-08
9.11344e-06
4.10711e-09
9.10601e-06
-1.75812e-08
9.11722e-06
2.74244e-08
9.1247e-06
1.3801e-07
9.12423e-06
1.23737e-07
9.12687e-06
2.75119e-08
9.12228e-06
-3.48931e-08
9.10852e-06
-5.30368e-08
9.09662e-06
-5.35776e-08
9.08739e-06
-3.93478e-08
9.07939e-06
-2.75824e-09
9.07378e-06
3.19356e-08
9.07186e-06
5.23913e-08
9.07437e-06
7.48268e-08
9.07873e-06
9.70638e-08
9.08173e-06
1.0379e-07
9.08491e-06
9.80724e-08
9.09055e-06
9.58885e-08
9.65569e-08
9.09531e-06
9.55468e-06
-2.91691e-08
9.55023e-06
8.56224e-09
9.54148e-06
-8.82833e-09
9.55237e-06
1.65352e-08
9.56187e-06
1.2851e-07
9.56008e-06
1.25521e-07
9.56078e-06
2.68166e-08
9.55803e-06
-3.21507e-08
9.54534e-06
-4.03403e-08
9.53214e-06
-4.03795e-08
9.52363e-06
-3.08359e-08
9.51742e-06
3.4537e-09
9.51205e-06
3.72993e-08
9.50933e-06
5.51125e-08
9.51154e-06
7.26207e-08
9.51643e-06
9.21728e-08
9.52001e-06
1.00205e-07
9.52251e-06
9.55711e-08
9.52749e-06
9.09117e-08
9.17093e-08
9.53234e-06
1.00107e-05
-2.97281e-08
1.00079e-05
1.13305e-08
9.99809e-06
1.00383e-09
1.00079e-05
6.68766e-09
1.00196e-05
1.16879e-07
1.00173e-05
1.27812e-07
1.00155e-05
2.86139e-08
1.00141e-05
-3.07788e-08
1.00033e-05
-2.9555e-08
9.98916e-06
-2.62176e-08
9.98043e-06
-2.20998e-08
9.97602e-06
7.85928e-09
9.97165e-06
4.16716e-08
9.9683e-06
5.84628e-08
9.96963e-06
7.12929e-08
9.97468e-06
8.71207e-08
9.97921e-06
9.56797e-08
9.98149e-06
9.32839e-08
9.98536e-06
8.70448e-08
8.66872e-08
9.99038e-06
1.04884e-05
-2.95128e-08
1.04875e-05
1.22799e-08
1.04769e-05
1.15992e-08
1.0485e-05
-1.43932e-09
1.04987e-05
1.03182e-07
1.04968e-05
1.29747e-07
1.04922e-05
3.3139e-08
1.04914e-05
-2.99148e-08
1.04833e-05
-2.14253e-08
1.04688e-05
-1.17918e-08
1.04591e-05
-1.23858e-08
1.0456e-05
1.0971e-08
1.04533e-05
4.44091e-08
1.04498e-05
6.19207e-08
1.045e-05
7.11307e-08
1.04546e-05
8.25188e-08
1.04599e-05
9.03384e-08
1.04628e-05
9.04018e-08
1.04655e-05
8.43648e-08
8.18473e-08
1.04703e-05
1.0989e-05
-2.84452e-08
1.09898e-05
1.13993e-08
1.09789e-05
2.25243e-08
1.09847e-05
-7.26941e-09
1.10002e-05
8.77421e-08
1.09994e-05
1.30483e-07
1.09923e-05
4.02624e-08
1.0991e-05
-2.8617e-08
1.09858e-05
-1.61914e-08
1.09721e-05
1.90582e-09
1.09611e-05
-1.4131e-09
1.09584e-05
1.37136e-08
1.09575e-05
4.52358e-08
1.09547e-05
6.47376e-08
1.09538e-05
7.20253e-08
1.09574e-05
7.89558e-08
1.0963e-05
8.47468e-08
1.09671e-05
8.63341e-08
1.09692e-05
8.22609e-08
7.7801e-08
1.09732e-05
1.15134e-05
-2.64987e-08
1.1516e-05
8.82206e-09
1.15053e-05
3.32409e-08
1.15083e-05
-1.03396e-08
1.1525e-05
7.10603e-08
1.15262e-05
1.29297e-07
1.1517e-05
4.95135e-08
1.15143e-05
-2.59177e-08
1.15117e-05
-1.36273e-08
1.14999e-05
1.36913e-08
1.14878e-05
1.07194e-08
1.14845e-05
1.70236e-08
1.14853e-05
4.44186e-08
1.14839e-05
6.61123e-08
1.14823e-05
7.36061e-08
1.14846e-05
7.6714e-08
1.14897e-05
7.96057e-08
1.14948e-05
8.12453e-08
1.14974e-05
7.96876e-08
7.47757e-08
1.15004e-05
1.2063e-05
-2.37055e-08
1.2067e-05
4.81714e-09
1.20571e-05
4.31809e-08
1.20572e-05
-1.04475e-08
1.20744e-05
5.38995e-08
1.20781e-05
1.25594e-07
1.20673e-05
6.02343e-08
1.20626e-05
-2.11722e-08
1.20621e-05
-1.31311e-08
1.2053e-05
2.27849e-08
1.20404e-05
2.33642e-08
1.20358e-05
2.16326e-08
1.20375e-05
4.26513e-08
1.20381e-05
6.55487e-08
1.20365e-05
7.51768e-08
1.20375e-05
7.57394e-08
1.20416e-05
7.54698e-08
1.2047e-05
7.58468e-08
1.20508e-05
7.59378e-08
7.23198e-08
1.20532e-05
1.2639e-05
-2.01602e-08
1.26441e-05
-2.02911e-10
1.26355e-05
5.17348e-08
1.26327e-05
-7.59506e-09
1.26494e-05
3.71348e-08
1.26559e-05
1.19131e-07
1.26447e-05
7.14084e-08
1.26375e-05
-1.39662e-08
1.26381e-05
-1.37391e-08
1.26323e-05
2.86482e-08
1.262e-05
3.56203e-08
1.26138e-05
2.78058e-08
1.26156e-05
4.09045e-08
1.2618e-05
6.31293e-08
1.26174e-05
7.57833e-08
1.26173e-05
7.58279e-08
1.26202e-05
7.25171e-08
1.26252e-05
7.08735e-08
1.26299e-05
7.12333e-08
6.94724e-08
1.26328e-05
1.32428e-05
-1.60178e-08
1.32483e-05
-5.74307e-09
1.32417e-05
5.8348e-08
1.32361e-05
-2.01568e-09
1.32515e-05
2.175e-08
1.32608e-05
1.09851e-07
1.32502e-05
8.19916e-08
1.32405e-05
-4.27166e-09
1.32411e-05
-1.43229e-08
1.32386e-05
3.12001e-08
1.32277e-05
4.64304e-08
1.32202e-05
3.53794e-08
1.3221e-05
4.0083e-08
1.32247e-05
5.9381e-08
1.32258e-05
7.47325e-08
1.32252e-05
7.64402e-08
1.3227e-05
7.07139e-08
1.32311e-05
6.67861e-08
1.3236e-05
6.63416e-08
6.567e-08
1.32398e-05
1.38756e-05
-1.14853e-08
1.38811e-05
-1.12479e-08
1.38769e-05
6.26004e-08
1.38691e-05
5.76031e-09
1.38821e-05
8.71186e-09
1.38939e-05
9.81223e-08
1.38851e-05
9.07954e-08
1.38732e-05
7.61561e-09
1.38727e-05
-1.37888e-08
1.38731e-05
3.07947e-08
1.38647e-05
5.48176e-08
1.38561e-05
4.39009e-08
1.38555e-05
4.07571e-08
1.38597e-05
5.51183e-08
1.38626e-05
7.18611e-08
1.38624e-05
7.66319e-08
1.38631e-05
7.00693e-08
1.38662e-05
6.36287e-08
1.38706e-05
6.19378e-08
6.12744e-08
1.3875e-05
1.4539e-05
-6.81305e-09
1.45439e-05
-1.61461e-08
1.45423e-05
6.42181e-08
1.4533e-05
1.50451e-08
1.45428e-05
-1.12332e-09
1.45565e-05
8.44853e-08
1.45504e-05
9.68252e-08
1.4537e-05
2.10822e-08
1.45344e-05
-1.12514e-08
1.45371e-05
2.81539e-08
1.45318e-05
6.01239e-08
1.45231e-05
5.26061e-08
1.45207e-05
4.3064e-08
1.45246e-05
5.12536e-08
1.45289e-05
6.75286e-08
1.45301e-05
7.55237e-08
1.45298e-05
7.02823e-08
1.45321e-05
6.14147e-08
1.45357e-05
5.82853e-08
5.70106e-08
1.454e-05
1.52343e-05
-2.26438e-09
1.52381e-05
-1.99328e-08
1.52392e-05
6.31626e-08
1.52292e-05
2.49819e-08
1.52352e-05
-7.11175e-09
1.525e-05
6.96824e-08
1.52474e-05
9.94803e-08
1.52333e-05
3.51469e-08
1.52283e-05
-6.23947e-09
1.52321e-05
2.43203e-08
1.52301e-05
6.21592e-08
1.52222e-05
6.05292e-08
1.52184e-05
4.68091e-08
1.52211e-05
4.85371e-08
1.52263e-05
6.23801e-08
1.52291e-05
7.27592e-08
1.52288e-05
7.05026e-08
1.52299e-05
6.03453e-08
1.5233e-05
5.52143e-08
5.34844e-08
1.52365e-05
1.59631e-05
1.9197e-09
1.59655e-05
-2.22556e-08
1.59689e-05
5.96988e-08
1.59592e-05
3.46943e-08
1.59613e-05
-9.14952e-09
1.59762e-05
5.47756e-08
1.59772e-05
9.84716e-08
1.59636e-05
4.87322e-08
1.59561e-05
1.21587e-09
1.59599e-05
2.05547e-08
1.59609e-05
6.11323e-08
1.59548e-05
6.66573e-08
1.595e-05
5.15901e-08
1.59512e-05
4.73241e-08
1.59564e-05
5.72054e-08
1.59606e-05
6.85754e-08
1.59613e-05
6.97535e-08
1.59613e-05
6.03378e-08
1.59638e-05
5.27143e-08
5.07207e-08
1.59666e-05
1.6727e-05
5.52733e-09
1.67276e-05
-2.28903e-08
1.6733e-05
5.42998e-08
1.67244e-05
4.32979e-08
1.67228e-05
-7.51788e-09
1.67367e-05
4.09016e-08
1.67411e-05
9.40568e-08
1.67292e-05
6.06219e-08
1.67197e-05
1.06679e-08
1.67223e-05
1.80052e-08
1.67258e-05
5.76661e-08
1.67221e-05
7.02702e-08
1.6717e-05
5.67509e-08
1.67167e-05
4.75817e-08
1.67212e-05
5.27661e-08
1.67262e-05
6.35512e-08
1.67285e-05
6.749e-08
1.67281e-05
6.06883e-08
1.67297e-05
5.11022e-08
4.82905e-08
1.67321e-05
1.75275e-05
8.41565e-09
1.75264e-05
-2.18117e-08
1.75331e-05
4.75962e-08
1.75263e-05
5.0089e-08
1.75217e-05
-2.89495e-09
1.75334e-05
2.91394e-08
1.75407e-05
8.68317e-08
1.75315e-05
6.98125e-08
1.75208e-05
2.13517e-08
1.75213e-05
1.74692e-08
1.75264e-05
5.26374e-08
1.75255e-05
7.11316e-08
1.75208e-05
6.14174e-08
1.75193e-05
4.90667e-08
1.75226e-05
4.95362e-08
1.75278e-05
5.83482e-08
1.75314e-05
6.38407e-08
1.75317e-05
6.04259e-08
1.75323e-05
5.04919e-08
4.60187e-08
1.75346e-05
1.83662e-05
1.05122e-08
1.83636e-05
-1.91839e-08
1.83709e-05
4.03285e-08
1.83664e-05
5.45612e-08
1.83597e-05
3.83158e-09
1.83686e-05
2.0267e-08
1.83777e-05
7.7685e-08
1.83719e-05
7.56289e-08
1.83609e-05
3.2297e-08
1.83592e-05
1.92442e-08
1.83647e-05
4.71417e-08
1.83664e-05
6.94449e-08
1.8363e-05
6.47345e-08
1.83607e-05
5.13693e-08
1.83627e-05
4.75882e-08
1.83674e-05
5.35831e-08
1.83719e-05
5.93827e-08
1.83735e-05
5.88661e-08
1.83735e-05
5.04342e-08
4.41534e-08
1.83754e-05
1.92451e-05
1.1824e-08
1.92412e-05
-1.53415e-08
1.92483e-05
3.32298e-08
1.92464e-05
5.65451e-08
1.92386e-05
1.1607e-08
1.92442e-05
1.46576e-08