/*--------------------------------*- C++ -*----------------------------------*\
| =========                 |                                                 |
| \\      /  F ield         | OpenFOAM: The Open Source CFD Toolbox           |
|  \\    /   O peration     | Version:  3.0.1                                 |
|   \\  /    A nd           | Web:      www.OpenFOAM.org                      |
|    \\/     M anipulation  |                                                 |
\*---------------------------------------------------------------------------*/
FoamFile
{
    version     2.0;
    format      ascii;
    class       volVectorField;
    location    "0.2";
    object      U;
}
// * * * * * * * * * * * * * * * * * * * * * * * * * * * * * * * * * * * * * //

dimensions      [0 1 -1 0 0 0 0];

internalField   nonuniform List<vector> 
9600
(
(0.872457 -8.60047e-05 0)
(1.12917 -0.00128335 0)
(0.879113 -0.00229096 0)
(1.13228 0.00103921 0)
(0.874756 0.00576996 0)
(1.11442 0.00844095 0)
(0.880413 0.00309309 0)
(1.0998 -0.00760792 0)
(0.85396 -0.00884613 0)
(1.1425 -0.0136238 0)
(0.840327 -0.0142838 0)
(1.09878 -0.00380983 0)
(0.883358 -0.0024688 0)
(1.10855 0.00159949 0)
(0.885828 0.00574222 0)
(1.10612 0.00190536 0)
(0.872119 0.0156608 0)
(1.10558 0.00467919 0)
(0.841754 0.0122033 0)
(1.10292 0.00521866 0)
(0.882144 -0.000169704 0)
(1.11802 -0.0011986 0)
(0.890279 -0.00247028 0)
(1.1214 0.00122267 0)
(0.88886 0.00575777 0)
(1.09814 0.00852989 0)
(0.905316 0.00307568 0)
(1.07655 -0.00702688 0)
(0.884548 -0.00972658 0)
(1.11074 -0.0131799 0)
(0.873294 -0.0137671 0)
(1.07159 -0.00431461 0)
(0.914281 -0.00295301 0)
(1.07648 0.00164831 0)
(0.928269 0.00567565 0)
(1.05879 0.00233751 0)
(0.932611 0.0155357 0)
(1.03187 0.00521559 0)
(0.938758 0.0134335 0)
(0.98918 0.00502867 0)
(0.900296 -0.000226172 0)
(1.0975 -0.00113991 0)
(0.911083 -0.00263107 0)
(1.09957 0.00138402 0)
(0.915083 0.00582537 0)
(1.07103 0.0085199 0)
(0.938181 0.00317625 0)
(1.04839 -0.00668674 0)
(0.923214 -0.0102532 0)
(1.06999 -0.012879 0)
(0.919119 -0.0133652 0)
(1.03256 -0.0048568 0)
(0.952922 -0.00310182 0)
(1.03589 0.00145163 0)
(0.970769 0.00594866 0)
(1.01765 0.00242004 0)
(0.974111 0.0158312 0)
(1.00037 0.00559185 0)
(0.975617 0.0135796 0)
(0.980979 0.0057405 0)
(0.923597 -0.000246576 0)
(1.07168 -0.00113896 0)
(0.936366 -0.00272559 0)
(1.07174 0.00144282 0)
(0.944394 0.0059851 0)
(1.04316 0.00838607 0)
(0.966834 0.00332073 0)
(1.02482 -0.0064703 0)
(0.955876 -0.0104804 0)
(1.03394 -0.0128308 0)
(0.95615 -0.0129018 0)
(1.00287 -0.00527611 0)
(0.977472 -0.00316782 0)
(1.01002 0.00110099 0)
(0.99081 0.00624775 0)
(1.00085 0.00244529 0)
(0.987518 0.0161424 0)
(0.995718 0.00558532 0)
(0.985563 0.013886 0)
(0.987833 0.00648558 0)
(0.94758 -0.000235787 0)
(1.04611 -0.00118132 0)
(0.959922 -0.0027688 0)
(1.04468 0.00142729 0)
(0.968651 0.00616846 0)
(1.02175 0.00822112 0)
(0.986242 0.00345856 0)
(1.01055 -0.00631601 0)
(0.976723 -0.0105327 0)
(1.01047 -0.0128673 0)
(0.976532 -0.0124748 0)
(0.989242 -0.00553489 0)
(0.987313 -0.00331054 0)
(0.998845 0.000807086 0)
(0.996463 0.00638339 0)
(0.996725 0.00262941 0)
(0.991107 0.0161126 0)
(0.996217 0.00572849 0)
(0.990493 0.0140607 0)
(0.992135 0.00716745 0)
(0.96827 -0.0002047 0)
(1.0254 -0.00124133 0)
(0.977662 -0.00277685 0)
(1.02339 0.00138708 0)
(0.984474 0.0063156 0)
(1.009 0.00808051 0)
(0.997147 0.00354484 0)
(1.00472 -0.00619271 0)
(0.987798 -0.0104569 0)
(0.99877 -0.0128865 0)
(0.984588 -0.0121721 0)
(0.98589 -0.00568928 0)
(0.990293 -0.00344919 0)
(0.99453 0.000569679 0)
(0.997187 0.00641704 0)
(0.996278 0.00282297 0)
(0.993212 0.0159271 0)
(0.997921 0.00598882 0)
(0.994264 0.0138776 0)
(0.995767 0.00789265 0)
(0.983483 -0.000167281 0)
(1.01153 -0.00129488 0)
(0.988677 -0.00276037 0)
(1.00941 0.00135142 0)
(0.992776 0.00639671 0)
(1.00325 0.0079636 0)
(1.00283 0.00357301 0)
(1.00384 -0.00607733 0)
(0.993547 -0.0102913 0)
(0.99429 -0.0128698 0)
(0.986814 -0.0119648 0)
(0.986124 -0.0058045 0)
(0.991391 -0.00354103 0)
(0.992764 0.000352505 0)
(0.996706 0.00637692 0)
(0.996601 0.00294985 0)
(0.995192 0.0156761 0)
(1.00003 0.00624833 0)
(0.997328 0.0135355 0)
(0.998715 0.00868133 0)
(0.993064 -0.000134806 0)
(1.00384 -0.00132858 0)
(0.994328 -0.00272724 0)
(1.00155 0.00132688 0)
(0.996325 0.00640924 0)
(1.0016 0.0078483 0)
(1.00609 0.00356477 0)
(1.00491 -0.00596377 0)
(0.99707 -0.0100685 0)
(0.993202 -0.0128078 0)
(0.987157 -0.0117945 0)
(0.986825 -0.00592388 0)
(0.992028 -0.00360191 0)
(0.9921 0.000151535 0)
(0.996147 0.00627908 0)
(0.996952 0.00302978 0)
(0.9969 0.0153378 0)
(1.00177 0.00653235 0)
(0.999636 0.0131558 0)
(1.00067 0.0094898 0)
(0.998213 -0.000112248 0)
(1.00037 -0.00134121 0)
(0.99669 -0.0026812 0)
(0.99766 0.00130912 0)
(0.997596 0.00636655 0)
(1.00173 0.00771698 0)
(1.00824 0.00353517 0)
(1.00634 -0.00585396 0)
(0.99964 -0.00980773 0)
(0.993484 -0.0126925 0)
(0.987199 -0.011631 0)
(0.987244 -0.00605678 0)
(0.992292 -0.00365079 0)
(0.991799 -3.22827e-05 0)
(0.995695 0.00614737 0)
(0.997077 0.00308475 0)
(0.99806 0.0149134 0)
(1.00274 0.00686341 0)
(1.001 0.0127511 0)
(1.0016 0.0102784 0)
(1.00053 -9.90458e-05 0)
(0.999188 -0.00133843 0)
(0.99745 -0.00262275 0)
(0.995937 0.00129256 0)
(0.997975 0.00628547 0)
(1.00227 0.00756225 0)
(1.00961 0.00349464 0)
(1.0075 -0.00574878 0)
(1.00153 -0.00952225 0)
(0.994291 -0.0125286 0)
(0.987401 -0.0114582 0)
(0.987381 -0.00618544 0)
(0.992087 -0.00369979 0)
(0.991293 -0.000199595 0)
(0.99504 0.00598647 0)
(0.996715 0.00313209 0)
(0.998369 0.014416 0)
(1.00276 0.00724421 0)
(1.00126 0.012322 0)
(1.00154 0.0110302 0)
(1.00134 -9.19845e-05 0)
(0.998995 -0.00132726 0)
(0.997587 -0.00255316 0)
(0.995307 0.00127412 0)
(0.997998 0.00618076 0)
(1.00265 0.00738592 0)
(1.01024 0.003448 0)
(1.00825 -0.00564947 0)
(1.00276 -0.00922447 0)
(0.995268 -0.0123268 0)
(0.987843 -0.0112646 0)
(0.987341 -0.00628936 0)
(0.991426 -0.00374389 0)
(0.990301 -0.000345731 0)
(0.993824 0.00579525 0)
(0.99563 0.00318449 0)
(0.997602 0.0138714 0)
(1.00172 0.00766198 0)
(1.00047 0.0118918 0)
(1.00059 0.0117001 0)
(1.00148 -8.81305e-05 0)
(0.999136 -0.00131278 0)
(0.997539 -0.00247503 0)
(0.995219 0.0012538 0)
(0.997846 0.00606464 0)
(1.00271 0.00719401 0)
(1.01025 0.00339662 0)
(1.00864 -0.00555629 0)
(1.00337 -0.00892526 0)
(0.996215 -0.0120996 0)
(0.98847 -0.011046 0)
(0.987228 -0.00635124 0)
(0.990473 -0.00377467 0)
(0.988889 -0.000461737 0)
(0.991991 0.00557902 0)
(0.993845 0.0032583 0)
(0.995826 0.0132923 0)
(0.999782 0.00809829 0)
(0.998856 0.011488 0)
(0.999004 0.0122426 0)
(1.00139 -8.57425e-05 0)
(0.999338 -0.00129757 0)
(0.997464 -0.00239091 0)
(0.995384 0.00123298 0)
(0.997625 0.00594578 0)
(1.00255 0.0069925 0)
(1.00988 0.00333982 0)
(1.00878 -0.00546772 0)
(1.00351 -0.00863152 0)
(0.996995 -0.0118602 0)
(0.989164 -0.0108034 0)
(0.987129 -0.00635653 0)
(0.989481 -0.00378419 0)
(0.987366 -0.000533663 0)
(0.989845 0.00535381 0)
(0.9917 0.00336181 0)
(0.993472 0.0126882 0)
(0.997371 0.00852123 0)
(0.996886 0.0111284 0)
(0.997175 0.0126297 0)
(1.00126 -8.3963e-05 0)
(0.999503 -0.00128254 0)
(0.997411 -0.00230248 0)
(0.995636 0.00121246 0)
(0.997425 0.00582884 0)
(1.00231 0.00678516 0)
(1.00937 0.00327698 0)
(1.00875 -0.00538159 0)
(1.0034 -0.00834611 0)
(0.997543 -0.0116147 0)
(0.989808 -0.0105461 0)
(0.987105 -0.00629843 0)
(0.988678 -0.00377207 0)
(0.986073 -0.00055292 0)
(0.987842 0.00512746 0)
(0.989675 0.00349319 0)
(0.991143 0.012089 0)
(0.995024 0.00888865 0)
(0.995045 0.0108187 0)
(0.995512 0.0128489 0)
(1.00116 -8.23303e-05 0)
(0.999609 -0.00126791 0)
(0.997391 -0.00221073 0)
(0.995885 0.00119194 0)
(0.997297 0.00571487 0)
(1.00209 0.00657424 0)
(1.00888 0.00320854 0)
(1.00862 -0.00529402 0)
(1.0032 -0.00807014 0)
(0.997868 -0.0113608 0)
(0.990329 -0.0102855 0)
(0.987171 -0.00618431 0)
(0.98818 -0.00374485 0)
(0.985216 -0.000522795 0)
(0.986327 0.00490438 0)
(0.988141 0.00364349 0)
(0.989316 0.0115125 0)
(0.993149 0.00918512 0)
(0.993662 0.0105603 0)
(0.994272 0.0129125 0)
(1.00109 -8.05537e-05 0)
(0.999664 -0.00125379 0)
(0.997402 -0.00211611 0)
(0.996095 0.00117081 0)
(0.997249 0.00560274 0)
(1.00192 0.006361 0)
(1.00847 0.00313552 0)
(1.00844 -0.00520211 0)
(1.00299 -0.00780227 0)
(0.998025 -0.0110957 0)
(0.990717 -0.0100269 0)
(0.987312 -0.00602287 0)
(0.987979 -0.00370801 0)
(0.984812 -0.00045326 0)
(0.985407 0.0046972 0)
(0.987224 0.00379494 0)
(0.988178 0.0109718 0)
(0.991897 0.00940825 0)
(0.99283 0.0103433 0)
(0.993518 0.0128561 0)
(1.00104 -7.85019e-05 0)
(0.999685 -0.00124017 0)
(0.997434 -0.00201885 0)
(0.996269 0.00114856 0)
(0.997259 0.00549115 0)
(1.00179 0.00614548 0)
(1.00812 0.00305864 0)
(1.00822 -0.00510291 0)
(1.00281 -0.00754471 0)
(0.998079 -0.0108103 0)
(0.991003 -0.00977698 0)
(0.9875 -0.00582392 0)
(0.987996 -0.00366707 0)
(0.984761 -0.000357045 0)
(0.98499 0.00450682 0)
(0.986839 0.00393327 0)
(0.987656 0.0104813 0)
(0.991196 0.00956193 0)
(0.992459 0.0101539 0)
(0.993168 0.0127154 0)
(1.00102 -7.61238e-05 0)
(0.999687 -0.0012271 0)
(0.997481 -0.00191897 0)
(0.996418 0.0011249 0)
(0.997303 0.00537881 0)
(1.0017 0.00592888 0)
(1.00782 0.00297716 0)
(1.00798 -0.00499435 0)
(1.00266 -0.00729755 0)
(0.998079 -0.0105003 0)
(0.991228 -0.00954061 0)
(0.987712 -0.00559607 0)
(0.988142 -0.0036283 0)
(0.98493 -0.000249897 0)
(0.984907 0.00433894 0)
(0.986812 0.00404591 0)
(0.987559 0.0100396 0)
(0.990875 0.00965853 0)
(0.992389 0.00998093 0)
(0.993086 0.0125178 0)
(1.001 -7.33036e-05 0)
(0.99968 -0.00121479 0)
(0.997535 -0.00181652 0)
(0.996555 0.00109978 0)
(0.997365 0.00526496 0)
(1.00161 0.00571264 0)
(1.00754 0.00289057 0)
(1.00773 -0.00487391 0)
(1.00252 -0.00706226 0)
(0.998055 -0.0101657 0)
(0.991427 -0.00931708 0)
(0.987936 -0.00534837 0)
(0.988353 -0.00358375 0)
(0.985217 -0.000142665 0)
(0.985008 0.00420963 0)
(0.986983 0.00412592 0)
(0.987705 0.00963621 0)
(0.99077 0.00971148 0)
(0.992478 0.00981258 0)
(0.993155 0.0122744 0)
(1.00098 -7.00876e-05 0)
(0.999669 -0.00120304 0)
(0.997594 -0.00171225 0)
(0.996688 0.0010739 0)
(0.997436 0.00514827 0)
(1.00153 0.00549909 0)
(1.00727 0.00279641 0)
(1.00747 -0.00473716 0)
(1.00238 -0.00684315 0)
(0.998019 -0.00980508 0)
(0.991619 -0.0091041 0)
(0.988168 -0.00508864 0)
(0.988595 -0.00352674 0)
(0.985562 -5.40774e-05 0)
(0.985196 0.00411845 0)
(0.987245 0.00417885 0)
(0.987971 0.00926128 0)
(0.990772 0.00973551 0)
(0.992635 0.00964573 0)
(0.993301 0.0119909 0)
(1.00096 -6.64935e-05 0)
(0.999656 -0.0011921 0)
(0.997656 -0.0016062 0)
(0.996821 0.00104743 0)
(0.99751 0.00502816 0)
(1.00145 0.00528892 0)
(1.007 0.0026933 0)
(1.00721 -0.00458445 0)
(1.00225 -0.00663797 0)
(0.997977 -0.00942288 0)
(0.991814 -0.0088946 0)
(0.988405 -0.00482527 0)
(0.988848 -0.00345545 0)
(0.985936 -5.57374e-07 0)
(0.985425 0.00405663 0)
(0.987543 0.00421915 0)
(0.988295 0.00889804 0)
(0.990825 0.00973817 0)
(0.99281 0.00948595 0)
(0.993486 0.011675 0)
(1.00095 -6.25045e-05 0)
(0.999645 -0.00118212 0)
(0.997718 -0.00149878 0)
(0.996955 0.00102096 0)
(0.997586 0.00490393 0)
(1.00137 0.0050837 0)
(1.00673 0.00258043 0)
(1.00695 -0.00441671 0)
(1.00211 -0.00644363 0)
(0.99793 -0.00902373 0)
(0.992012 -0.00868479 0)
(0.988648 -0.00456536 0)
(0.989105 -0.00335195 0)
(0.98633 2.42885e-05 0)
(0.985677 0.00402054 0)
(0.987852 0.00425614 0)
(0.988651 0.0085335 0)
(0.990907 0.0097183 0)
(0.992983 0.0093375 0)
(0.993694 0.0113257 0)
(1.00093 -5.81204e-05 0)
(0.999634 -0.00117271 0)
(0.997782 -0.00139163 0)
(0.99709 0.00099664 0)
(0.997663 0.00477396 0)
(1.00128 0.00488754 0)
(1.00646 0.00245487 0)
(1.00669 -0.00423131 0)
(1.00198 -0.00626201 0)
(0.997881 -0.00860883 0)
(0.992216 -0.00846932 0)
(0.988898 -0.00431856 0)
(0.989363 -0.00321122 0)
(0.986739 2.5319e-05 0)
(0.985946 0.00399943 0)
(0.988161 0.00429793 0)
(0.989028 0.00816999 0)
(0.991013 0.00967076 0)
(0.993144 0.00920714 0)
(0.993917 0.0109449 0)
(1.00092 -5.37444e-05 0)
(0.999626 -0.00116309 0)
(0.997847 -0.00128592 0)
(0.997226 0.000974615 0)
(0.997741 0.0046389 0)
(1.0012 0.00470145 0)
(1.00619 0.00231804 0)
(1.00642 -0.00403135 0)
(1.00185 -0.00608751 0)
(0.99783 -0.00818511 0)
(0.992422 -0.0082381 0)
(0.989159 -0.0040963 0)
(0.98962 -0.0030373 0)
(0.987161 9.91273e-06 0)
(0.986234 0.00398098 0)
(0.988467 0.00435038 0)
(0.989422 0.00781594 0)
(0.991142 0.00958711 0)
(0.993289 0.00910117 0)
(0.994152 0.0105409 0)
(1.0009 -4.91671e-05 0)
(0.999619 -0.00115354 0)
(0.997915 -0.00118223 0)
(0.997364 0.000955447 0)
(0.997819 0.00449669 0)
(1.00112 0.00452457 0)
(1.00592 0.0021715 0)
(1.00616 -0.00382274 0)
(1.00172 -0.00591242 0)
(0.997779 -0.00776585 0)
(0.992631 -0.00797787 0)
(0.98943 -0.00390284 0)
(0.989877 -0.00283279 0)
(0.987593 -8.0775e-06 0)
(0.986541 0.00395141 0)
(0.988769 0.00441239 0)
(0.989829 0.00747671 0)
(0.991298 0.00945697 0)
(0.993416 0.00901785 0)
(0.994391 0.0101277 0)
(1.00089 -4.4618e-05 0)
(0.999614 -0.00114317 0)
(0.997984 -0.00108111 0)
(0.997503 0.000942672 0)
(0.997897 0.00434486 0)
(1.00103 0.00435943 0)
(1.00565 0.00201538 0)
(1.00589 -0.00360721 0)
(1.00159 -0.00573469 0)
(0.99773 -0.00736048 0)
(0.992839 -0.00768219 0)
(0.989712 -0.00373448 0)
(0.990133 -0.00260483 0)
(0.988033 -1.99642e-05 0)
(0.986868 0.00390553 0)
(0.989066 0.00448031 0)
(0.990244 0.00715726 0)
(0.991482 0.00928122 0)
(0.993529 0.0089515 0)
(0.994629 0.0097222 0)
(1.00087 -4.08505e-05 0)
(0.999612 -0.00112972 0)
(0.998056 -0.0009841 0)
(0.997644 0.000935001 0)
(0.997976 0.00418581 0)
(1.00095 0.00420589 0)
(1.00539 0.00185843 0)
(1.00563 -0.00338566 0)
(1.00147 -0.0055487 0)
(0.997684 -0.00697495 0)
(0.993048 -0.00735842 0)
(0.990005 -0.00357914 0)
(0.990392 -0.00236526 0)
(0.988477 -1.2943e-05 0)
(0.987218 0.00385282 0)
(0.989359 0.00454964 0)
(0.990663 0.00685812 0)
(0.991697 0.00906716 0)
(0.993628 0.00889588 0)
(0.994856 0.00934157 0)
(1.00085 -3.74674e-05 0)
(0.99961 -0.00111548 0)
(0.99813 -0.00089279 0)
(0.997787 0.000934254 0)
(0.998056 0.00401819 0)
(1.00086 0.00406255 0)
(1.00512 0.00169664 0)
(1.00537 -0.00317085 0)
(1.00134 -0.00534386 0)
(0.997642 -0.00660869 0)
(0.993256 -0.00701248 0)
(0.990309 -0.00343154 0)
(0.990654 -0.00212704 0)
(0.988924 1.64424e-05 0)
(0.987587 0.00379612 0)
(0.989648 0.00461486 0)
(0.991082 0.00657482 0)
(0.991945 0.00881523 0)
(0.99372 0.00884056 0)
(0.995064 0.00899939 0)
(1.00083 -3.4872e-05 0)
(0.99961 -0.00109815 0)
(0.998206 -0.000810931 0)
(0.99793 0.000943814 0)
(0.998138 0.00384348 0)
(1.00077 0.00392586 0)
(1.00486 0.00153608 0)
(1.00511 -0.00296777 0)
(1.00122 -0.00511501 0)
(0.997605 -0.00625976 0)
(0.993465 -0.00664884 0)
(0.990623 -0.00328679 0)
(0.990921 -0.00189772 0)
(0.989373 5.98475e-05 0)
(0.987977 0.00373341 0)
(0.989933 0.00467557 0)
(0.991495 0.00630891 0)
(0.992226 0.00852129 0)
(0.993811 0.00876737 0)
(0.995245 0.00870332 0)
(1.00082 -3.34708e-05 0)
(0.999612 -0.00107527 0)
(0.998286 -0.000739592 0)
(0.998074 0.00096061 0)
(0.998222 0.00366471 0)
(1.00068 0.00379406 0)
(1.0046 0.001388 0)
(1.00486 -0.00278031 0)
(1.0011 -0.00486574 0)
(0.997573 -0.00592333 0)
(0.993673 -0.00627385 0)
(0.990946 -0.0031322 0)
(0.991195 -0.00167437 0)
(0.989824 0.000112131 0)
(0.988387 0.00366114 0)
(0.990214 0.00473043 0)
(0.991898 0.0060666 0)
(0.992539 0.00818941 0)
(0.99391 0.00866365 0)
(0.995393 0.00846775 0)
(1.0008 -3.38449e-05 0)
(0.999614 -0.00104681 0)
(0.998368 -0.000676433 0)
(0.998218 0.000984549 0)
(0.998308 0.00348065 0)
(1.00059 0.00366795 0)
(1.00435 0.00125065 0)
(1.00461 -0.00261915 0)
(1.00098 -0.0045965 0)
(0.997546 -0.00559735 0)
(0.993883 -0.00589765 0)
(0.991278 -0.00295526 0)
(0.991475 -0.00145535 0)
(0.990276 0.000172472 0)
(0.988818 0.00357957 0)
(0.990495 0.00478265 0)
(0.992285 0.00586275 0)
(0.992879 0.00783104 0)
(0.994028 0.00850981 0)
(0.995508 0.00828121 0)
(1.00078 -3.66546e-05 0)
(0.999618 -0.00101097 0)
(0.998452 -0.000624333 0)
(0.998362 0.00101583 0)
(0.998396 0.00329845 0)
(1.00049 0.00353861 0)
(1.00409 0.00113601 0)
(1.00437 -0.00247869 0)
(1.00087 -0.00431439 0)
(0.997524 -0.00527176 0)
(0.994096 -0.0055328 0)
(0.991617 -0.00277377 0)
(0.991761 -0.00124357 0)
(0.990727 0.000243247 0)
(0.98927 0.00348924 0)
(0.990779 0.00481728 0)
(0.99265 0.00569905 0)
(0.993237 0.00746649 0)
(0.994173 0.00829678 0)
(0.995594 0.00812081 0)
(1.00076 -4.08426e-05 0)
(0.999623 -0.000968564 0)
(0.99854 -0.000585298 0)
(0.998506 0.00104968 0)
(0.998484 0.00312322 0)
(1.00041 0.00340266 0)
(1.00384 0.00104425 0)
(1.00414 -0.00235726 0)
(1.00077 -0.00402844 0)
(0.997506 -0.00493678 0)
(0.994309 -0.00518425 0)
(0.991965 -0.0025878 0)
(0.992055 -0.00102284 0)
(0.991176 0.000322907 0)
(0.989741 0.00338626 0)
(0.991071 0.00482313 0)
(0.992994 0.00556371 0)
(0.993604 0.00712221 0)
(0.99435 0.00803512 0)
(0.995665 0.00795911 0)
(1.00075 -4.82643e-05 0)
(0.999629 -0.00091513 0)
(0.99863 -0.000558365 0)
(0.998649 0.00108092 0)
(0.998573 0.00295712 0)
(1.00032 0.00325558 0)
(1.00359 0.000975094 0)
(1.00392 -0.00225081 0)
(1.00067 -0.00374783 0)
(0.997492 -0.00458368 0)
(0.994524 -0.00483766 0)
(0.992323 -0.00239882 0)
(0.992355 -0.000792583 0)
(0.99162 0.0004146 0)
(0.990227 0.00326898 0)
(0.991376 0.00481147 0)
(0.993321 0.00544631 0)
(0.993973 0.00680739 0)
(0.994555 0.00775071 0)
(0.995728 0.0077819 0)
(1.00073 -5.8791e-05 0)
(0.999635 -0.000853227 0)
(0.998723 -0.000538404 0)
(0.998792 0.00110904 0)
(0.99866 0.00280259 0)
(1.00024 0.0030991 0)
(1.00335 0.000926002 0)
(1.00371 -0.00214595 0)
(1.00059 -0.00348089 0)
(0.997483 -0.00421545 0)
(0.994737 -0.00448308 0)
(0.99269 -0.00222342 0)
(0.992663 -0.000572935 0)
(0.992055 0.000531724 0)
(0.990728 0.00314133 0)
(0.991697 0.00477307 0)
(0.993632 0.00533919 0)
(0.994339 0.0065073 0)
(0.994786 0.00745483 0)
(0.995791 0.00759627 0)
(1.00071 -7.16678e-05 0)
(0.999641 -0.000782421 0)
(0.998817 -0.000527033 0)
(0.998935 0.00112676 0)
(0.998746 0.00266588 0)
(1.00016 0.00293201 0)
(1.00311 0.000895845 0)
(1.00351 -0.00203504 0)
(1.00051 -0.00323555 0)
(0.997481 -0.00384465 0)
(0.994946 -0.00412861 0)
(0.993065 -0.00206087 0)
(0.992983 -0.0003623 0)
(0.99248 0.000681698 0)
(0.991236 0.00302197 0)
(0.992035 0.00468722 0)
(0.993929 0.00523708 0)
(0.994698 0.00622543 0)
(0.995042 0.0071405 0)
(0.995863 0.00739895 0)
(1.00069 -8.85116e-05 0)
(0.999645 -0.000701802 0)
(0.998912 -0.000522313 0)
(0.99908 0.00112873 0)
(0.998829 0.00255308 0)
(1.00008 0.00275347 0)
(1.00287 0.000879654 0)
(1.00332 -0.00191149 0)
(1.00046 -0.00301769 0)
(0.997488 -0.00347603 0)
(0.995151 -0.00376177 0)
(0.993446 -0.00190109 0)
(0.993319 -0.000167241 0)
(0.992894 0.000847724 0)
(0.991741 0.00292956 0)
(0.992391 0.00456191 0)
(0.994221 0.00512261 0)
(0.995046 0.00597365 0)
(0.995321 0.00681737 0)
(0.995958 0.00716917 0)
(1.00067 -0.00010718 0)
(0.999648 -0.000615582 0)
(0.999007 -0.000517477 0)
(0.999225 0.0011149 0)
(0.99891 0.0024622 0)
(1.00001 0.00257431 0)
(1.00265 0.000858319 0)
(1.00313 -0.00176804 0)
(1.00041 -0.00281721 0)
(0.997509 -0.00312276 0)
(0.99535 -0.0033728 0)
(0.99383 -0.00173362 0)
(0.993671 -9.34917e-06 0)
(0.993302 0.00100615 0)
(0.992238 0.00286893 0)
(0.992758 0.00442812 0)
(0.994513 0.00498126 0)
(0.995383 0.00573885 0)
(0.99561 0.00651042 0)
(0.996089 0.0068922 0)
(1.00065 -0.000129565 0)
(0.99965 -0.000520994 0)
(0.9991 -0.000512236 0)
(0.999372 0.00107894 0)
(0.998988 0.00239148 0)
(0.999934 0.00239937 0)
(1.00243 0.000834615 0)
(1.00295 -0.00160288 0)
(1.00038 -0.00262311 0)
(0.997546 -0.00279126 0)
(0.995545 -0.0029721 0)
(0.994209 -0.00156109 0)
(0.994036 0.000108951 0)
(0.993709 0.00114752 0)
(0.992726 0.00283067 0)
(0.993129 0.0043068 0)
(0.994804 0.00481951 0)
(0.995716 0.0054944 0)
(0.995903 0.00623632 0)
(0.996256 0.0065905 0)
(1.00063 -0.000153781 0)
(0.999649 -0.000423038 0)
(0.999188 -0.000502081 0)
(0.999521 0.00101865 0)
(0.999062 0.00233689 0)
(0.999862 0.00224064 0)
(1.00222 0.000800173 0)
(1.00277 -0.00141959 0)
(1.00036 -0.00242727 0)
(0.997601 -0.00249669 0)
(0.995736 -0.00256828 0)
(0.99458 -0.00136591 0)
(0.994414 0.000206412 0)
(0.994119 0.00126686 0)
(0.993207 0.00279879 0)
(0.993498 0.00420289 0)
(0.995088 0.00466923 0)
(0.996049 0.00522359 0)
(0.996199 0.00597253 0)
(0.996449 0.00629355 0)
(1.00061 -0.000178947 0)
(0.999646 -0.000325011 0)
(0.99927 -0.000481265 0)
(0.999672 0.000933629 0)
(0.999134 0.00228788 0)
(0.999787 0.00210607 0)
(1.00203 0.000742862 0)
(1.0026 -0.00123169 0)
(1.00034 -0.00221398 0)
(0.997674 -0.00224009 0)
(0.99593 -0.00218746 0)
(0.994937 -0.0011389 0)
(0.994797 0.000296902 0)
(0.994531 0.0013504 0)
(0.993684 0.00276559 0)
(0.993868 0.00409984 0)
(0.995354 0.00454993 0)
(0.996375 0.00494778 0)
(0.996507 0.00568839 0)
(0.996659 0.00602151 0)
(1.00059 -0.000205024 0)
(0.99964 -0.000229028 0)
(0.999343 -0.000448659 0)
(0.999824 0.000825739 0)
(0.999207 0.00223871 0)
(0.999708 0.00199965 0)
(1.00185 0.0006716 0)
(1.00245 -0.00104939 0)
(1.00033 -0.00197895 0)
(0.997761 -0.00200412 0)
(0.99613 -0.00183579 0)
(0.995283 -0.000889209 0)
(0.995177 0.00039213 0)
(0.994946 0.0013958 0)
(0.994158 0.00272543 0)
(0.994243 0.00399038 0)
(0.995606 0.00445103 0)
(0.996683 0.00470782 0)
(0.996829 0.00537066 0)
(0.996884 0.00575773 0)
(1.00057 -0.000231211 0)
(0.999633 -0.000137628 0)
(0.999404 -0.000401017 0)
(0.999976 0.000699856 0)
(0.999281 0.00218156 0)
(0.999622 0.00193018 0)
(1.00168 0.000599754 0)
(1.00231 -0.000885478 0)
(1.00032 -0.00171834 0)
(0.997859 -0.00178019 0)
(0.99634 -0.00152304 0)
(0.995618 -0.000629361 0)
(0.995546 0.000512192 0)
(0.995359 0.00142634 0)
(0.994634 0.00265943 0)
(0.994626 0.0038759 0)
(0.995848 0.00435863 0)
(0.996959 0.00452091 0)
(0.997152 0.00505094 0)
(0.99713 0.00547362 0)
(1.00055 -0.000254084 0)
(0.999625 -5.52745e-05 0)
(0.999453 -0.000338228 0)
(1.00012 0.00056076 0)
(0.999361 0.00211021 0)
(0.99953 0.00189659 0)
(1.00151 0.000526859 0)
(1.00219 -0.000757574 0)
(1.00031 -0.00143979 0)
(0.997961 -0.00154646 0)
(0.99656 -0.00126079 0)
(0.995948 -0.00038043 0)
(0.995903 0.000666282 0)
(0.995758 0.00146747 0)
(0.995106 0.00256267 0)
(0.995022 0.00374062 0)
(0.99609 0.00426407 0)
(0.997205 0.00436889 0)
(0.997461 0.00476981 0)
(0.997387 0.00517749 0)
(1.00053 -0.00027512 0)
(0.999617 1.84246e-05 0)
(0.999486 -0.000256751 0)
(1.00027 0.000415825 0)
(0.999448 0.00201406 0)
(0.999429 0.00189673 0)
(1.00134 0.000467575 0)
(1.00208 -0.000665964 0)
(1.00031 -0.00115862 0)
(0.998059 -0.00129308 0)
(0.996785 -0.00103755 0)
(0.99628 -0.000154665 0)
(0.996246 0.000838474 0)
(0.996132 0.00152883 0)
(0.995567 0.00245763 0)
(0.995433 0.00357567 0)
(0.996338 0.00416282 0)
(0.997426 0.00424591 0)
(0.997748 0.00452535 0)
(0.997637 0.00491176 0)
(1.00051 -0.000290837 0)
(0.999609 7.78175e-05 0)
(0.999503 -0.000158945 0)
(1.0004 0.000271483 0)
(0.999546 0.00189149 0)
(0.999326 0.00192209 0)
(1.00116 0.000439435 0)
(1.002 -0.000611263 0)
(1.00032 -0.000893567 0)
(0.998151 -0.00101232 0)
(0.997011 -0.000836398 0)
(0.996619 2.45228e-05 0)
(0.996582 0.00100266 0)
(0.996479 0.00162061 0)
(0.996005 0.00237056 0)
(0.995857 0.00337611 0)
(0.996605 0.00403117 0)
(0.997626 0.00415098 0)
(0.998014 0.00430755 0)
(0.997871 0.00468879 0)
(1.00048 -0.000300143 0)
(0.999603 0.000118308 0)
(0.999504 -4.64898e-05 0)
(1.00053 0.000136258 0)
(0.999656 0.00173814 0)
(0.99922 0.00195876 0)
(1.00098 0.000450135 0)
(1.00193 -0.000585114 0)
(1.00035 -0.000665275 0)
(0.998234 -0.000704809 0)
(0.997222 -0.000633158 0)
(0.996961 0.000145408 0)
(0.996921 0.00113786 0)
(0.9968 0.00174239 0)
(0.996402 0.00232282 0)
(0.996281 0.0031621 0)
(0.996903 0.00385356 0)
(0.997817 0.00406549 0)
(0.99826 0.00412471 0)
(0.998101 0.00447307 0)
(1.00045 -0.000302257 0)
(0.999601 0.000138382 0)
(0.999488 7.91029e-05 0)
(1.00063 2.25957e-05 0)
(0.99978 0.00155048 0)
(0.99912 0.00199534 0)
(1.00077 0.000505755 0)
(1.00187 -0.000570994 0)
(1.00041 -0.000483605 0)
(0.998315 -0.000390682 0)
(0.99741 -0.000411808 0)
(0.9973 0.000228085 0)
(0.997273 0.00122834 0)
(0.997104 0.00186667 0)
(0.996753 0.00232424 0)
(0.996685 0.00297081 0)
(0.997231 0.00362517 0)
(0.998015 0.00396168 0)
(0.998477 0.00399184 0)
(0.998339 0.00424898 0)
(1.00042 -0.000295932 0)
(0.999604 0.000138758 0)
(0.99946 0.000209681 0)
(1.00071 -6.57639e-05 0)
(0.999917 0.00133781 0)
(0.999031 0.00201895 0)
(1.00055 0.000605335 0)
(1.00181 -0.000557538 0)
(1.00049 -0.000357949 0)
(0.998399 -9.15732e-05 0)
(0.997568 -0.000168842 0)
(0.997624 0.000292998 0)
(0.997639 0.00126126 0)
(0.997407 0.00196763 0)
(0.997057 0.00236966 0)
(0.997044 0.00283253 0)
(0.997578 0.00336341 0)
(0.998248 0.00379789 0)
(0.998669 0.00390101 0)
(0.998581 0.00403308 0)
(1.00039 -0.000280673 0)
(0.999613 0.000117669 0)
(0.99942 0.000343596 0)
(1.00077 -0.000124466 0)
(1.00006 0.00110374 0)
(0.998964 0.00201415 0)
(1.00032 0.00075216 0)
(1.00174 -0.00052151 0)
(1.0006 -0.000291897 0)
(0.998497 0.00018833 0)
(0.997693 0.000111683 0)
(0.997917 0.000366656 0)
(0.998017 0.00123591 0)
(0.997723 0.00202652 0)
(0.99733 0.00243845 0)
(0.997344 0.00275907 0)
(0.997911 0.00313028 0)
(0.998526 0.00355665 0)
(0.998857 0.00380699 0)
(0.998806 0.00386599 0)
(1.00036 -0.00025605 0)
(0.99963 7.97952e-05 0)
(0.999374 0.000468799 0)
(1.00079 -0.000146237 0)
(1.00022 0.000861987 0)
(0.998924 0.00197489 0)
(1.00007 0.00092533 0)
(1.00165 -0.000452263 0)
(1.00074 -0.000269619 0)
(0.998623 0.000424684 0)
(0.997787 0.000420645 0)
(0.99816 0.00047201 0)
(0.998394 0.00117882 0)
(0.998064 0.00202503 0)
(0.997589 0.00250311 0)
(0.997589 0.00273393 0)
(0.998196 0.00296146 0)
(0.998832 0.00327932 0)
(0.999083 0.00364221 0)
(0.99901 0.00375285 0)
(1.00033 -0.000223969 0)
(0.999654 2.80775e-05 0)
(0.999326 0.000581656 0)
(1.00078 -0.000127486 0)
(1.00037 0.000619803 0)
(0.99892 0.00189448 0)
(0.999818 0.00111358 0)
(1.00152 -0.000341177 0)
(1.00089 -0.000276522 0)
(0.998786 0.000582434 0)
(0.997863 0.000722383 0)
(0.998345 0.000616716 0)
(0.998751 0.00112024 0)
(0.998433 0.00195593 0)
(0.997852 0.00254126 0)
(0.997791 0.00274648 0)
(0.998418 0.00285226 0)
(0.999123 0.00303821 0)
(0.99936 0.00339051 0)
(0.999224 0.0036305 0)
(1.00029 -0.000183594 0)
(0.999686 -3.38178e-05 0)
(0.999283 0.000672883 0)
(1.00074 -6.87715e-05 0)
(1.00052 0.000393413 0)
(0.998955 0.00176602 0)
(0.999574 0.00130246 0)
(1.00136 -0.000178527 0)
(1.00104 -0.000294394 0)
(0.998991 0.000664782 0)
(0.997938 0.00100237 0)
(0.998469 0.000809147 0)
(0.999066 0.00108562 0)
(0.998821 0.00183306 0)
(0.998142 0.00252522 0)
(0.997965 0.00277771 0)
(0.998579 0.00278958 0)
(0.99936 0.00286334 0)
(0.999659 0.00311598 0)
(0.999488 0.00343487 0)
(1.00026 -0.000139199 0)
(0.999726 -9.5627e-05 0)
(0.999248 0.000735821 0)
(1.00068 2.26184e-05 0)
(1.00066 0.000194505 0)
(0.999032 0.00159466 0)
(0.999351 0.00146689 0)
(1.00116 2.82202e-05 0)
(1.00117 -0.000297679 0)
(0.999239 0.000672716 0)
(0.998031 0.00123098 0)
(0.998538 0.0010335 0)
(0.999317 0.00109164 0)
(0.999211 0.00169014 0)
(0.998473 0.00244004 0)
(0.998135 0.00279945 0)
(0.998688 0.00276785 0)
(0.999533 0.00273822 0)
(0.999932 0.00288946 0)
(0.999804 0.00316644 0)
(1.00022 -9.13244e-05 0)
(0.999772 -0.000155103 0)
(0.999228 0.000771124 0)
(1.00058 0.000135745 0)
(1.00077 3.71333e-05 0)
(0.999149 0.00139237 0)
(0.999162 0.00159348 0)
(1.00093 0.000265404 0)
(1.00127 -0.000267791 0)
(0.999521 0.00062377 0)
(0.99816 0.00138846 0)
(0.998568 0.00126684 0)
(0.999495 0.00114606 0)
(0.999576 0.00156015 0)
(0.998844 0.0022915 0)
(0.998329 0.00278068 0)
(0.998756 0.00277884 0)
(0.999646 0.00264965 0)
(1.00014 0.0027269 0)
(1.00012 0.00290162 0)
(1.00019 -4.38218e-05 0)
(0.999821 -0.000202984 0)
(0.999225 0.000769687 0)
(1.00047 0.000266149 0)
(1.00085 -7.27647e-05 0)
(0.9993 0.00116287 0)
(0.999018 0.0016662 0)
(1.00067 0.000522954 0)
(1.00132 -0.000190303 0)
(0.999821 0.000543988 0)
(0.998338 0.00146471 0)
(0.998578 0.00148716 0)
(0.999597 0.00124937 0)
(0.99989 0.00146522 0)
(0.999238 0.00210521 0)
(0.998573 0.00269567 0)
(0.998807 0.00279896 0)
(0.999703 0.00260066 0)
(1.0003 0.00259998 0)
(1.00039 0.00270559 0)
(1.00015 5.0385e-07 0)
(0.999872 -0.000237595 0)
(0.999244 0.000737406 0)
(1.00035 0.000398686 0)
(1.0009 -0.000130939 0)
(0.999477 0.000927518 0)
(0.998933 0.0016741 0)
(1.0004 0.000781814 0)
(1.00131 -5.92885e-05 0)
(1.00012 0.00045929 0)
(0.998571 0.00145959 0)
(0.998596 0.00166874 0)
(0.999631 0.00138772 0)
(1.00013 0.00141716 0)
(0.999629 0.00191874 0)
(0.998877 0.00254272 0)
(0.998876 0.0027912 0)
(0.999706 0.00259452 0)
(1.0004 0.00249195 0)
(1.00059 0.00257576 0)
(1.00012 4.00097e-05 0)
(0.999921 -0.000254021 0)
(0.999282 0.000679134 0)
(1.00022 0.00051916 0)
(1.00091 -0.00012805 0)
(0.999667 0.000707485 0)
(0.998908 0.00162102 0)
(1.00014 0.00102084 0)
(1.00124 0.000115168 0)
(1.00039 0.00039084 0)
(0.998853 0.00138654 0)
(0.998643 0.00179041 0)
(0.999614 0.00154076 0)
(1.0003 0.00142002 0)
(0.999985 0.00176073 0)
(0.999228 0.00234478 0)
(0.998998 0.00272124 0)
(0.999673 0.00261489 0)
(1.00046 0.0024115 0)
(1.00072 0.00247424 0)
(1.00009 7.29583e-05 0)
(0.999966 -0.000250139 0)
(0.99934 0.000601138 0)
(1.0001 0.000620146 0)
(1.00088 -7.63342e-05 0)
(0.999856 0.000511155 0)
(0.998946 0.00150944 0)
(0.999905 0.00121929 0)
(1.00111 0.000324707 0)
(1.00062 0.000358629 0)
(0.999172 0.00126848 0)
(0.998739 0.00183568 0)
(0.999571 0.00168269 0)
(1.00038 0.00146609 0)
(1.00028 0.0016443 0)
(0.999597 0.00213892 0)
(0.999195 0.0025801 0)
(0.99964 0.00262319 0)
(1.00046 0.00237205 0)
(1.00081 0.00237554 0)
(1.00007 9.81782e-05 0)
(1 -0.000228638 0)
(0.999414 0.000514493 0)
(0.999999 0.000691968 0)
(1.00082 5.13408e-06 0)
(1.00003 0.000357288 0)
(0.999041 0.0013585 0)
(0.999718 0.00135234 0)
(1.00094 0.000549955 0)
(1.00078 0.000378854 0)
(0.999505 0.00113746 0)
(0.998891 0.00180884 0)
(0.99953 0.00179417 0)
(1.0004 0.0015413 0)
(1.0005 0.00157365 0)
(0.999949 0.00195643 0)
(0.99946 0.0023893 0)
(0.999654 0.00257677 0)
(1.00041 0.00236821 0)
(1.00087 0.00228223 0)
(1.00005 0.000114953 0)
(1.00003 -0.000191135 0)
(0.999498 0.000426804 0)
(0.999917 0.00073176 0)
(1.00074 0.000109914 0)
(1.00018 0.000249829 0)
(0.99918 0.00119083 0)
(0.999586 0.0014181 0)
(1.00075 0.000765639 0)
(1.00088 0.000450447 0)
(0.999826 0.0010157 0)
(0.999098 0.00172039 0)