/*--------------------------------*- C++ -*----------------------------------*\
| =========                 |                                                 |
| \\      /  F ield         | OpenFOAM: The Open Source CFD Toolbox           |
|  \\    /   O peration     | Version:  3.0.1                                 |
|   \\  /    A nd           | Web:      www.OpenFOAM.org                      |
|    \\/     M anipulation  |                                                 |
\*---------------------------------------------------------------------------*/
FoamFile
{
    version     2.0;
    format      ascii;
    class       volScalarField;
    location    "4.7";
    object      p;
}
// * * * * * * * * * * * * * * * * * * * * * * * * * * * * * * * * * * * * * //

dimensions      [0 2 -2 0 0 0 0];

internalField   nonuniform List<scalar> 
9600
(
-2.356e-11
-0.000369461
0.00104627
-0.000602831
0.00139325
2.61411e-05
0.000262253
-0.00260104
-0.00161197
-0.00052272
0.000852959
-7.29521e-06
0.00295109
0.00112717
0.00266365
0.00158336
0.000914054
0.000532876
-0.000457425
-0.000766234
-6.873e-06
-0.000369495
0.00104998
-0.000604254
0.00140063
8.7393e-06
0.000255422
-0.00259964
-0.00161947
-0.000518369
0.000868936
-2.52325e-05
0.00297158
0.00109388
0.00267241
0.00150034
0.000924709
0.000417339
-0.000442324
-0.000978541
-1.41135e-05
-0.00036864
0.00105418
-0.000606039
0.00140694
-1.49298e-05
0.000244878
-0.00259423
-0.00162692
-0.000514454
0.000880938
-5.19062e-05
0.00299781
0.00103933
0.00267569
0.00139936
0.000927117
0.000281506
-0.000425667
-0.00124802
-2.13538e-05
-0.00036752
0.00105819
-0.000609344
0.00140721
-4.19757e-05
0.000231363
-0.00258073
-0.00163448
-0.000511654
0.000890334
-8.65593e-05
0.0030084
0.00096013
0.00265765
0.00129501
0.000905623
0.000171823
-0.000432939
-0.00147223
-2.89163e-05
-0.000366187
0.00106222
-0.000615241
0.00140556
-7.19981e-05
0.000217711
-0.00255754
-0.00164178
-0.000508851
0.000897888
-0.000128921
0.00300652
0.000859968
0.00263246
0.00118545
0.000884766
8.07383e-05
-0.000469425
-0.00161979
-3.68676e-05
-0.000364477
0.00106607
-0.000623385
0.00140473
-0.000104609
0.000207144
-0.00252438
-0.00164803
-0.000505452
0.000902507
-0.000175666
0.00300004
0.000748869
0.00260758
0.00107854
0.000874887
-3.82043e-06
-0.000522562
-0.00172125
-4.51125e-05
-0.00036237
0.00106947
-0.000632648
0.00140527
-0.000139701
0.00020152
-0.00248134
-0.0016526
-0.000501388
0.000903712
-0.000223582
0.00299325
0.000633301
0.00258081
0.000980774
0.000859492
-7.68427e-05
-0.000594435
-0.00180043
-5.36305e-05
-0.000359929
0.00107216
-0.000641788
0.00140777
-0.000177428
0.000201632
-0.00242857
-0.00165512
-0.000496501
0.000901318
-0.000270563
0.00298726
0.000515553
0.00255043
0.000891373
0.000827225
-0.000133556
-0.000695268
-0.00186525
-6.24628e-05
-0.00035721
0.00107407
-0.000649968
0.00141292
-0.000217875
0.000207373
-0.00236635
-0.00165555
-0.000490671
0.000895192
-0.000315319
0.00298119
0.000397183
0.00251557
0.000810964
0.000776093
-0.000174031
-0.000826216
-0.0019179
-7.16757e-05
-0.000354239
0.00107524
-0.000657065
0.00142086
-0.00026056
0.000217713
-0.00229554
-0.00165412
-0.000483885
0.000885192
-0.000356397
0.00297349
0.000280664
0.00247492
0.000742695
0.000704206
-0.000200338
-0.000983226
-0.00196546
-8.13283e-05
-0.000351027
0.00107582
-0.000663485
0.00143118
-0.000304412
0.000230845
-0.00221773
-0.00165138
-0.000476164
0.00087105
-0.000391578
0.0029619
0.000169481
0.00242705
0.00068926
0.000608703
-0.000215534
-0.00116123
-0.00201922
-9.14574e-05
-0.000347584
0.00107602
-0.000669602
0.00144316
-0.00034822
0.000244572
-0.00213501
-0.00164803
-0.000467365
0.000852491
-0.000418534
0.00294356
6.78748e-05
0.0023705
0.000651664
0.000488215
-0.000223385
-0.00135341
-0.00208999
-0.00010208
-0.000343913
0.00107599
-0.000675368
0.00145591
-0.000391164
0.00025694
-0.0020495
-0.00164495
-0.000457166
0.000829545
-0.000435912
0.0029159
-2.03016e-05
0.00230303
0.000630207
0.000343839
-0.000229123
-0.00155109
-0.00218489
-0.000113208
-0.000340011
0.00107587
-0.000680346
0.00146846
-0.000432995
0.000266638
-0.0019628
-0.00164293
-0.000445263
0.000802436
-0.000443772
0.00287736
-9.26084e-05
0.00222137
0.000624998
0.000178129
-0.000239613
-0.00174476
-0.00230731
-0.000124852
-0.000335888
0.00107577
-0.000683995
0.00147974
-0.000473702
0.000272948
-0.0018758
-0.00164246
-0.000431352
0.000771327
-0.000443454
0.00282733
-0.000148359
0.00212237
0.000634685
-5.62622e-06
-0.000261735
-0.00192581
-0.00245718
-0.000137009
-0.000331569
0.00107573
-0.000685955
0.0014888
-0.000513195
0.000275534
-0.00178873
-0.0016439
-0.000415071
0.000736284
-0.00043689
0.00276589
-0.000188639
0.00200422
0.00065615
-0.000202603
-0.000301978
-0.00208669
-0.00263092
-0.000149663
-0.000327101
0.00107573
-0.000686132
0.00149499
-0.000551293
0.000274246
-0.00170147
-0.00164761
-0.00039614
0.00069727
-0.000426032
0.00269347
-0.000215326
0.00186648
0.000685624
-0.000406706
-0.000367012
-0.0022213
-0.00282304
-0.000162795
-0.000322545
0.00107575
-0.000684665
0.00149789
-0.000587684
0.000268974
-0.00161374
-0.00165393
-0.000374519
0.000654336
-0.000412796
0.00261098
-0.000230409
0.00170968
0.000719219
-0.000612111
-0.00046194
-0.00232571
-0.00302757
-0.000176376
-0.000317983
0.00107578
-0.00068185
0.00149726
-0.000621869
0.000259522
-0.00152527
-0.00166323
-0.00035037
0.000607755
-0.000398951
0.0025196
-0.000236505
0.00153622
0.000752842
-0.000813921
-0.000588468
-0.00239868
-0.0032374
-0.000190344
-0.000313531
0.00107579
-0.000678016
0.00149299
-0.000653289
0.000245587
-0.00143571
-0.00167592
-0.000323949
0.000558101
-0.000386356
0.00242052
-0.000236434
0.00134928
0.000782057
-0.00100704
-0.000745974
-0.00244289
-0.00344461
-0.000204618
-0.000309333
0.00107572
-0.000673446
0.00148492
-0.000681441
0.000226771
-0.00134476
-0.00169222
-0.000295803
0.000506347
-0.000377163
0.00231541
-0.000232764
0.001151
0.000802851
-0.00118677
-0.000933647
-0.00246394
-0.0036402
-0.000219106
-0.00030556
0.00107556
-0.000668353
0.00147284
-0.000707562
0.000202631
-0.0012523
-0.00171208
-0.000266772
0.000453769
-0.000373826
0.00220621
-0.000227931
0.000943211
0.000811843
-0.00135097
-0.00115038
-0.00246755
-0.00381362
-0.000233694
-0.000302399
0.00107525
-0.000662882
0.0014565
-0.000726985
0.000172696
-0.00115826
-0.00173549
-0.000237835
0.000402395
-0.000379287
0.00209473
-0.000222929
0.000726989
0.000805392
-0.00149756
-0.00139401
-0.00246047
-0.00395351
-0.000248237
-0.000300056
0.00107473
-0.000657097
0.00143564
-0.000741016
0.0001365
-0.00106275
-0.00176229
-0.000210486
0.000355002
-0.000396149
0.00198176
-0.000218425
0.00050237
0.000780364
-0.0016224
-0.0016624
-0.002452
-0.00404833
-0.000262562
-0.00029878
0.00107391
-0.000650926
0.00140984
-0.000749209
9.36744e-05
-0.000966146
-0.00179184
-0.000186857
0.000314272
-0.000425973
0.00186707
-0.000217173
0.000270072
0.000733594
-0.00172211
-0.00195139
-0.00245365
-0.00408892
-0.000276485
-0.000298814
0.0010727
-0.000644194
0.00137862
-0.00075102
4.40071e-05
-0.000869061
-0.00182293
-0.000169358
0.000282369
-0.000469293
0.00175
-0.000207671
3.14973e-05
0.000661267
-0.00179396
-0.00225425
-0.00248025
-0.00407133
-0.000289818
-0.000300384
0.00107088
-0.000636672
0.00134152
-0.000746043
-1.2635e-05
-0.000772121
-0.00185402
-0.000160823
0.000261387
-0.000525252
0.00162821
-0.000191584
-0.000211858
0.000558611
-0.0018356
-0.00256212
-0.00254704
-0.00399899
-0.000302342
-0.000303759
0.00106822
-0.000628015
0.00129801
-0.000733955
-7.61672e-05
-0.000676252
-0.00188336
-0.00016436
0.000252947
-0.000591672
0.00149813
-0.000167113
-0.000456884
0.000420084
-0.00184772
-0.0028616
-0.00266469
-0.00388352
-0.000313817
-0.00030916
0.0010645
-0.000617771
0.00124736
-0.000714617
-0.000145946
-0.000583004
-0.00190886
-0.000182732
0.000257226
-0.00066518
0.00135522
-0.000132944
-0.000697818
0.000240542
-0.00183583
-0.00313574
-0.00283726
-0.00374702
-0.000324013
-0.000316721
0.00105925
-0.000605459
0.00118895
-0.000688119
-0.000221033
-0.000494184
-0.00192807
-0.000218404
0.000273374
-0.000741258
0.00119481
-9.01922e-05
-0.000927626
1.64214e-05
-0.00181032
-0.00336683
-0.00306024
-0.00361953
-0.000332697
-0.000326606
0.00105208
-0.000590526
0.00112234
-0.000654532
-0.000300207
-0.000412213
-0.00193835
-0.000272984
0.000298797
-0.000814731
0.00101332
-4.29798e-05
-0.00113822
-0.000251221
-0.00178502
-0.00354028
-0.00332053
-0.00353327
-0.000339663
-0.000338864
0.00104192
-0.000572522
0.0010473
-0.000614206
-0.000381793
-0.000339931
-0.00193729
-0.000346875
0.000329073
-0.00088022
0.000808492
2.55153e-06
-0.00132
-0.000555575
-0.00177638
-0.00364932
-0.00359779
-0.00351421
-0.000344714
-0.000353436
0.00102814
-0.000551056
0.000963888
-0.000568098
-0.000463729
-0.000280035
-0.00192326
-0.000439396
0.000359002
-0.000932572
0.000581066
3.71312e-05
-0.001465
-0.000885414
-0.00180139
-0.00369821
-0.00386717
-0.00357264
-0.000347658
-0.000370264
0.00100997
-0.000525638
0.000872295
-0.00051749
-0.000543593
-0.00023524
-0.00189533
-0.000548503
0.000382011
-0.000967186
0.000334984
4.93482e-05
-0.00156872
-0.00122721
-0.00187259
-0.00369902
-0.00410308
-0.00370153
-0.000348369
-0.000389065
0.000986495
-0.000495983
0.000772899
-0.000464138
-0.000618669
-0.000207878
-0.0018539
-0.000671109
0.000391268
-0.000981263
7.33491e-05
2.8852e-05
-0.00163107
-0.00156602
-0.00199493
-0.00366937
-0.0042849
-0.00387979
-0.000346826
-0.000409404
0.000956754
-0.000462077
0.000666582
-0.000410167
-0.000710788
-0.00019963
-0.00180071
-0.000802734
0.000380857
-0.000975643
-0.000201449
-3.19147e-05
-0.00165765
-0.00188593
-0.0021659
-0.00363125
-0.00440468
-0.00408024
-0.000343033
-0.0004309
0.000919949
-0.000423932
0.000554687
-0.000357647
-0.000767768
-0.000212359
-0.00173822
-0.000937882
0.000345464
-0.000954045
-0.000533053
-0.000137487
-0.00165794
-0.00217161
-0.00237688
-0.00360601
-0.00446791
-0.00427338
-0.000337006
-0.000453246
0.000875329
-0.000381636
0.00043889
-0.000309512
-0.000811807
-0.000245327
-0.00167026
-0.00107141
0.000281882
-0.000918852
-0.000784239
-0.000287749
-0.00164501
-0.00241197
-0.00261549
-0.00361019
-0.00448863
-0.00443365
-0.000328876
-0.000476081
0.000822448
-0.000335626
0.000321234
-0.00026916
-0.000841331
-0.000296661
-0.00160193
-0.00119869
0.000189193
-0.000876191
-0.00101476
-0.000479919
-0.00163434
-0.00260272
-0.00286738
-0.00365108
-0.00448422
-0.00454923
-0.000318807
-0.000499032
0.000761158
-0.000286596
0.0002039
-0.000239705
-0.000855894
-0.000361717
-0.00153827
-0.00131635
6.79375e-05
-0.000834942
-0.0012186
-0.000707004
-0.00164018
-0.00274421
-0.00311652
-0.00372793
-0.00447237
-0.00462405
-0.000307055
-0.000521663
0.000691414
-0.000235485
8.93344e-05
-0.000223793
-0.000855328
-0.000434722
-0.00148399
-0.00142293
-7.90901e-05
-0.00080303
-0.00139201
-0.000959726
-0.00167394
-0.00284137
-0.00334756
-0.00383713
-0.00446678
-0.00466788
-0.000294121
-0.00054319
0.000613456
-0.000183844
-1.96087e-05
-0.000223615
-0.000840825
-0.000511323
-0.00144341
-0.00151891
-0.000247483
-0.000787121
-0.00153408
-0.0012268
-0.00174323
-0.00290406
-0.00354889
-0.00397307
-0.0044755
-0.00468956
-0.000280675
-0.000562627
0.00052773
-0.000133774
-0.000119424
-0.000240476
-0.000815892
-0.000586497
-0.00141832
-0.00160549
-0.000432807
-0.00079439
-0.00165584
-0.00149403
-0.00184933
-0.00294574
-0.00371317
-0.00412617
-0.00450755
-0.00469671
-0.000267601
-0.000578842
0.00043478
-8.7991e-05
-0.000206532
-0.000274426
-0.000788778
-0.000656565
-0.00140829
-0.0016846
-0.00063079
-0.000830072
-0.00174052
-0.00174687
-0.00198761
-0.00298116
-0.00383845
-0.00428257
-0.00456984
-0.00470126
-0.000255872
-0.000590694
0.000335073
-4.94783e-05
-0.000278768
-0.000323912
-0.000762849
-0.000718531
-0.00141145
-0.00175885
-0.000836606
-0.000895745
-0.00180454
-0.00197605
-0.00215116
-0.00302267
-0.00392915
-0.00442695
-0.00465895
-0.00472069
-0.000246448
-0.00059757
0.000228157
-2.0542e-05
-0.000335296
-0.000384321
-0.000731721
-0.000773625
-0.00142504
-0.00182949
-0.00104511
-0.000991078
-0.00185581
-0.00217692
-0.00233141
-0.00307798
-0.00399417
-0.00454969
-0.00476291
-0.0047663
-0.00024024
-0.000599254
0.000122901
-8.64267e-06
-0.000377253
-0.000450937
-0.000732598
-0.000822474
-0.00144669
-0.00189741
-0.00125155
-0.00111202
-0.00190324
-0.00234891
-0.00251887
-0.00315031
-0.00404334
-0.00465022
-0.0048688
-0.00483436
-0.000237719
-0.000595877
1.94492e-05
-1.43317e-05
-0.000408531
-0.000519686
-0.000746116
-0.000870185
-0.00147571
-0.00196254
-0.00145143
-0.00125363
-0.00195529
-0.00249502
-0.00270588
-0.0032402
-0.00408366
-0.00473114
-0.00496897
-0.00491324
-0.000238967
-0.000588519
-7.91515e-05
-3.816e-05
-0.000435
-0.00058763
-0.000770823
-0.00092044
-0.00151207
-0.00202459
-0.00164038
-0.00141125
-0.00201693
-0.00261846
-0.00288677
-0.0033476
-0.00412076
-0.0047929
-0.0050624
-0.00499492
-0.000243757
-0.000578971
-0.000170349
-7.89366e-05
-0.000463058
-0.000653326
-0.000805033
-0.000972874
-0.00155476
-0.00208488
-0.00181592
-0.00157895
-0.00208983
-0.00272386
-0.00305676
-0.00347031
-0.00416319
-0.00483638
-0.0051471
-0.00507734
-0.000251654
-0.000568987
-0.000252855
-0.00013338
-0.000497461
-0.000717337
-0.000847453
-0.00102982
-0.00160201
-0.00214488
-0.00197868
-0.0017498
-0.00217351
-0.00281645
-0.00321196
-0.00360287
-0.00421962
-0.00486664
-0.00521576
-0.00516057
-0.000262097
-0.000559887
-0.000326808
-0.000197272
-0.000540524
-0.000782987
-0.000897566
-0.00108542
-0.00165119
-0.00220616
-0.00213111
-0.00191933
-0.00226609
-0.00289915
-0.0033516
-0.00373954
-0.00429159
-0.00489249
-0.00526432
-0.00524208
-0.000274476
-0.000552589
-0.000393367
-0.00026725
-0.000593135
-0.000854261
-0.000955364
-0.00114067
-0.00170237
-0.00226843
-0.00226068
-0.00208538
-0.00236507
-0.00297324
-0.00347476
-0.00387506
-0.00437646
-0.00492571
-0.00529703
-0.00531238
-0.000288346
-0.000548005
-0.000454006
-0.000340985
-0.000654742
-0.000933515
-0.00102205
-0.00119567
-0.00174902
-0.00233128
-0.00239869
-0.0022491
-0.00246943
-0.00304037
-0.00357944
-0.00400428
-0.00447106
-0.00497236
-0.00532242
-0.00536279
-0.000303379
-0.000546253
-0.000511377
-0.000417356
-0.000722886
-0.00102153
-0.00110009
-0.00125084
-0.0017895
-0.00239255
-0.00253201
-0.00241247
-0.00257889
-0.00310181
-0.00366495
-0.00412376
-0.00457141
-0.00502999
-0.00535194
-0.00539698
-0.000319357
-0.000548131
-0.000567612
-0.000495534
-0.000794179
-0.00111771
-0.001192
-0.00130838
-0.0018222
-0.00244729
-0.00266058
-0.00257766
-0.00269607
-0.00316107
-0.00373111
-0.00422706
-0.00467163
-0.00509546
-0.0053924
-0.0054261
-0.000336347
-0.000553638
-0.000624884
-0.000576073
-0.000865302
-0.00121843
-0.00129928
-0.00137333
-0.00184775
-0.00249051
-0.00278098
-0.00274483
-0.00282516
-0.00322359
-0.00378019
-0.00430728
-0.0047649
-0.00516555
-0.00544212
-0.00546165
-0.000355435
-0.000561886
-0.000685242
-0.000660263
-0.000934653
-0.00131768
-0.00142149
-0.00145267
-0.00186916
-0.00251929
-0.00288674
-0.00291047
-0.00296719
-0.00329679
-0.0038194
-0.00436312
-0.00484379
-0.0052352
-0.0054957
-0.00550884
-0.000378221
-0.000575175
-0.000744158
-0.000748481
-0.00100242
-0.0014098
-0.00155489
-0.00155267
-0.00189358
-0.00253311
-0.00297288
-0.00306767
-0.00311912
-0.00338609
-0.00385822
-0.00439851
-0.00490204
-0.00529908
-0.00554824
-0.00556265
-0.000405322
-0.000592705
-0.000802945
-0.000841696
-0.00107087
-0.0014907
-0.00169095
-0.00167518
-0.00193196
-0.00253441
-0.00303526
-0.00320971
-0.00327575
-0.00349132
-0.00390614
-0.00442215
-0.00493607
-0.00535047
-0.00559625
-0.00561337
-0.000437312
-0.000615099
-0.000860768
-0.000939516
-0.00114388
-0.00155955
-0.00182018
-0.00181741
-0.00199342
-0.00253167
-0.00307236
-0.00332932
-0.00342958
-0.00360969
-0.0039676
-0.00444537
-0.00495013
-0.00538164
-0.00563735
-0.00565755
-0.000474866
-0.000643149
-0.000916908
-0.00104002
-0.00122521
-0.00161967
-0.00193472
-0.00197087
-0.00208139
-0.00253621
-0.00308729
-0.00342058
-0.00357142
-0.00373631
-0.00404197
-0.00447619
-0.00495671
-0.00539166
-0.00566653
-0.00569421
-0.000518211
-0.000677571
-0.000971563
-0.00114078
-0.00131637
-0.00167753
-0.0020309
-0.00212365
-0.0021954
-0.00255754
-0.00308764
-0.00348313
-0.00369223
-0.00386257
-0.00412816
-0.00451598
-0.00496538
-0.00538716
-0.00567714
-0.00572087
-0.000567171
-0.000719059
-0.00102584
-0.00123954
-0.00141659
-0.00173982
-0.00211011
-0.00226392
-0.00232883
-0.00260348
-0.00308321
-0.00351818
-0.00378696
-0.00397876
-0.00422172
-0.00456472
-0.00497897
-0.00537821
-0.00566952
-0.00573335
-0.000621605
-0.000768234
-0.00108105
-0.00133439
-0.00152381
-0.00181088
-0.00217794
-0.00238523
-0.00246914
-0.00267545
-0.00308565
-0.00352995
-0.00385298
-0.00407692
-0.00431313
-0.00462095
-0.00499773
-0.00537138
-0.00565097
-0.00572857
-0.000681366
-0.00082512
-0.00113948
-0.00142453
-0.00163477
-0.0018928
-0.00224172
-0.00248716
-0.00260348
-0.00276795
-0.00310493
-0.00352846
-0.00388936
-0.00415121
-0.00439267
-0.00467826
-0.00501999
-0.00536641
-0.00562981
-0.00571073
-0.000746279
-0.000890025
-0.00120308
-0.00151068
-0.00174569
-0.00198522
-0.0023079
-0.00257268
-0.00272393
-0.00287001
-0.00314199
-0.00352581
-0.00390008
-0.00419719
-0.0044533
-0.0047275
-0.0050429
-0.00536216
-0.00560784
-0.00568367
-0.000816284
-0.000960872
-0.00127316
-0.00159529
-0.00185512
-0.00208626
-0.00238002
-0.00264754
-0.00282841
-0.00297166
-0.00319223
-0.00352817
-0.0038931
-0.00421256
-0.00448844
-0.00475905
-0.00505764
-0.00535458
-0.00558286
-0.00565129
-0.000891922
-0.00103875
-0.00135022
-0.00167946
-0.00196098
-0.00219304
-0.00246085
-0.00271804
-0.00291718
-0.00306629
-0.00324996
-0.00353575
-0.00387673
-0.0042003
-0.00449242
-0.00476512
-0.00505083
-0.00533158
-0.00554439
-0.00560805
-0.0009737
-0.00112426
-0.00143464
-0.00176571
-0.00206383
-0.00230176
-0.00255015
-0.002791
-0.00299441
-0.00314869
-0.00330766
-0.00354462
-0.00384987
-0.00416166
-0.00446204
-0.0047445
-0.00502329
-0.00529345
-0.00549529
-0.00555294
-0.00106124
-0.0012122
-0.00152535
-0.00185898
-0.00216749
-0.00241233
-0.00264635
-0.00286917
-0.00306714
-0.00322132
-0.00336316
-0.00355506
-0.00381001
-0.00408823
-0.0043761
-0.00466486
-0.0049484
-0.00522321
-0.00543279
-0.00549529
-0.00115559
-0.00130809
-0.0016226
-0.00195632
-0.00227087
-0.00252367
-0.00274939
-0.00295427
-0.00314023
-0.00328591
-0.0034107
-0.00356943
-0.00377751
-0.00400378
-0.00424345
-0.00449957
-0.00475853
-0.00502293
-0.0052604
-0.00538022
-0.00125732
-0.00141198
-0.0017258
-0.00205815
-0.00237674
-0.00263791
-0.00286228
-0.00305033
-0.00321894
-0.00335007
-0.00344479
-0.00355623
-0.00372337
-0.00391713
-0.00413187
-0.00436613
-0.00457554
-0.00474487
-0.00488863
-0.00497465
-0.00136425
-0.00151868
-0.00183459
-0.00216805
-0.00248808
-0.0027551
-0.00298454
-0.00316909
-0.0033206
-0.00343848
-0.00349846
-0.00350566
-0.00352514
-0.00357832
-0.00370336
-0.00395808
-0.00430415
-0.00464738
-0.0049188
-0.00505973
-0.00147645
-0.00163444
-0.00195369
-0.00228366
-0.00259783
-0.00286214
-0.00309777
-0.00330058
-0.00346779
-0.00361876
-0.00375996
-0.00381073
-0.00372614
-0.00356539
-0.00339896
-0.00325778
-0.00314452
-0.00307116
-0.00302982
-0.00303076
-0.00159864
-0.00176101
-0.00208157
-0.00240686
-0.00270699
-0.00296001
-0.00319095
-0.00339007
-0.00353332
-0.00354406
-0.00342083
-0.00325763
-0.00318792
-0.00324619
-0.00335569
-0.00349533
-0.00361525
-0.00365061
-0.00362582
-0.00360183
-0.0017374
-0.00189147
-0.00221173
-0.00254508
-0.00284861
-0.00307189
-0.00322282
-0.00327784
-0.00327964
-0.0033037
-0.00337678
-0.00346415
-0.00349806
-0.00344915
-0.0033171
-0.0031172
-0.00291924
-0.00275767
-0.00265329
-0.00266915
-0.00190501
-0.00202762
-0.00228725
-0.00253757
-0.00275675
-0.00292307
-0.00306166
-0.00316859
-0.00324723
-0.00331434
-0.0033504
-0.00334168
-0.00335745
-0.00344182
-0.00361637
-0.00385639
-0.00412785
-0.00443738
-0.00475444
-0.00504546
-0.00211061
-0.0022479
-0.00240791
-0.00254751
-0.00270258
-0.00286678
-0.00306103
-0.00323291
-0.00333263
-0.00338781
-0.00344356
-0.00347124
-0.00347522
-0.00343476
-0.00334306
-0.00317735
-0.00301137
-0.00287517
-0.00279629
-0.00282759
-0.00223856
-0.00236682
-0.00249383
-0.00257999
-0.00270612
-0.00286047
-0.00302521
-0.00315439
-0.00325486
-0.00333116
-0.00339607
-0.00340547
-0.00336431
-0.00335159
-0.00336395
-0.00340959
-0.00346568
-0.00352366
-0.00360867
-0.00377742
-2.91723e-05
-0.00101969
-0.00740973
-0.0127274
-0.0137579
-0.0123357
-0.0104893
-0.00897927
-0.00797324
-0.00750059
-0.00743072
-0.00734567
-0.00695841
-0.00647124
-0.0061452
-0.00597736
-0.00592303
-0.00594567
-0.00594129
-0.00590472
-0.00595336
-0.00606377
-0.00602937
-0.0057547
-0.00540112
-0.00516855
-0.00506707
-0.00500027
-0.0049253
-0.00483456
-0.0047263
-0.0046408
-0.00464699
-0.00474968
-0.00482604
-0.0047817
-0.00468156
-0.00456618
-0.00435845
-0.00410785
-0.00393647
-0.00382143
-0.003679
-0.00353405
-0.00341452
-0.00329252
-0.0031498
-0.00300695
-0.00285916
-0.00271698
-0.00257716
-0.00244
-0.00230341
-0.00216643
-0.00205351
-0.00193218
-0.00174195
-0.00151713
-0.00130734
-0.00109249
-0.000890011
-0.000718413
-0.000563608
-0.000365084
-0.000159224
4.06388e-05
0.000256033
0.000483895
0.000698014
0.000934888
0.00118972
0.00141803
0.0016173
0.0018199
0.00204969
0.00230472
0.00257383
0.00284645
0.00310028
0.00336001
0.00360826
0.00388554
0.00415854
0.00444177
0.00472296
0.00500708
0.00530552
0.00559783
0.00592575
0.00623419
0.00658166
0.00689667
0.00728229
0.00763983
0.00805191
0.00846764
0.00890995
0.00944348
0.0101047
0.0109295
-0.000446502
-0.0011192
-0.00729961
-0.0126059
-0.013691
-0.012301
-0.0104673
-0.00896286
-0.00795974
-0.0074889
-0.00742142
-0.0073388
-0.00695291
-0.0064661
-0.00614008
-0.00597222
-0.00591806
-0.00594123
-0.00593737
-0.00590101
-0.00594986
-0.00606075
-0.00602682
-0.0057523
-0.00539868
-0.00516618
-0.00506494
-0.00499837
-0.00492358
-0.00483302
-0.00472487
-0.00463939
-0.00464561
-0.00474847
-0.00482507
-0.00478084
-0.0046807
-0.00456543
-0.00435778
-0.00410714
-0.00393577
-0.00382081
-0.00367843
-0.00353349
-0.00341399
-0.00329203
-0.00314933
-0.0030065
-0.00285872
-0.00271655
-0.00257674
-0.0024396
-0.00230303
-0.00216604
-0.00205313
-0.00193185
-0.00174165
-0.00151681
-0.00130703
-0.00109219
-0.000889712
-0.000718116
-0.000563331
-0.000364825
-0.000158962
4.08884e-05
0.000256271
0.000484129
0.000698239
0.000935094
0.00118993
0.00141824
0.0016175
0.00182008
0.00204986
0.00230489
0.00257399
0.00284661
0.00310044
0.00336016
0.0036084
0.00388567
0.00415867
0.0044419
0.00472308
0.00500719
0.00530563
0.00559794
0.00592586
0.00623429
0.00658176
0.00689676
0.00728238
0.00763992
0.00805199
0.00846772
0.00891003
0.00944358
0.0101049
0.0109298
-0.000893033
-0.00116492
-0.00702546
-0.0123468
-0.013565
-0.0122484
-0.01044
-0.00894549
-0.00794756
-0.00747874
-0.00741105
-0.00732872
-0.00694469
-0.00646042
-0.00613624
-0.00596875
-0.00591408
-0.00593706
-0.00593349
-0.00589759
-0.00594699
-0.00605841
-0.00602468
-0.00575002
-0.00539627
-0.00516394
-0.00506298
-0.00499662
-0.00492198
-0.00483157
-0.0047235
-0.00463804
-0.0046443
-0.00474739
-0.00482427
-0.00478012
-0.00467998
-0.00456481
-0.00435718
-0.00410644
-0.0039351
-0.00382027
-0.00367793
-0.00353298
-0.00341352
-0.00329161
-0.00314891
-0.0030061
-0.00285834
-0.00271618
-0.00257638
-0.00243924
-0.00230269
-0.0021657
-0.00205281
-0.00193159
-0.0017414
-0.00151654
-0.00130675
-0.00109192
-0.000889439
-0.000717855
-0.000563103
-0.000364607
-0.000158734
4.11002e-05
0.000256475
0.000484335
0.00069843
0.000935268
0.00119011
0.00141843
0.00161767
0.00182024
0.00205001
0.00230503
0.00257412
0.00284675
0.00310057
0.00336028
0.00360852
0.00388578
0.00415878
0.004442
0.00472319
0.00500729
0.00530573
0.00559803
0.00592595
0.00623438
0.00658185
0.00689684
0.00728246
0.00763999
0.00805206
0.00846779
0.00891009
0.00944365
0.010105
0.0109303
-0.00128777
-0.00119389
-0.00668137
-0.0120087
-0.0133916
-0.0121752
-0.0104021
-0.0089204
-0.00793149
-0.007468
-0.00739894
-0.00731345
-0.00693061
-0.00645162
-0.00613252
-0.00596696
-0.0059113
-0.00593266
-0.00592879
-0.0058939
-0.00594434
-0.00605609
-0.00602207
-0.0057471
-0.00539346
-0.00516155
-0.00506091
-0.00499461
-0.00492001
-0.00482977
-0.00472186
-0.00463646
-0.00464278
-0.00474611
-0.00482334
-0.00477933
-0.00467922
-0.00456412
-0.00435645
-0.00410562
-0.00393436
-0.00381968
-0.00367736
-0.00353242
-0.00341303
-0.00329118
-0.00314848
-0.00300568
-0.00285794
-0.00271579
-0.00257601
-0.00243888
-0.00230234
-0.00216536
-0.00205249
-0.00193134
-0.00174116
-0.00151626
-0.00130647
-0.00109164
-0.000889154
-0.000717591
-0.000562881
-0.000364388
-0.000158502
4.13114e-05
0.00025668
0.000484546
0.000698622
0.000935441
0.00119031
0.00141864
0.00161785
0.00182039
0.00205015
0.00230517
0.00257427
0.0028469
0.00310071
0.00336041
0.00360863
0.0038859
0.00415889
0.00444211
0.0047233
0.00500739
0.00530583
0.00559812
0.00592605
0.00623447
0.00658194
0.00689692
0.00728254
0.00764007
0.00805213
0.00846785
0.00891012
0.00944368
0.0101049
0.010931
-0.00167365
-0.00127228
-0.00633107
-0.0116391
-0.013197
-0.0120921
-0.010357
-0.00888763
-0.00791036
-0.00745589
-0.00738492
-0.00729285
-0.00691004
-0.00643835
-0.00612754
-0.00596632
-0.00590987
-0.0059282
-0.00592332
-0.00589018
-0.00594219
-0.0060535
-0.00601815
-0.00574276
-0.00538986
-0.00515893
-0.0050587
-0.00499224
-0.00491741
-0.00482727
-0.0047197
-0.00463448
-0.00464078
-0.00474428
-0.00482195
-0.00477828
-0.00467827
-0.00456317
-0.00435543
-0.00410458
-0.00393347
-0.00381894
-0.00367666
-0.00353176
-0.00341247
-0.00329067
-0.00314797
-0.0030052
-0.0028575
-0.00271536
-0.00257559
-0.00243847
-0.00230196
-0.00216498
-0.00205214
-0.00193106
-0.0017409
-0.00151596
-0.00130616
-0.00109132
-0.000888844
-0.000717312
-0.000562647
-0.000364154
-0.000158254
4.15365e-05
0.000256904
0.000484776
0.000698827
0.000935627
0.00119054
0.00141887
0.00161804
0.00182055
0.0020503
0.00230533
0.00257442
0.00284706
0.00310086
0.00336055
0.00360876
0.00388602
0.00415902
0.00444222
0.00472342
0.00500749
0.00530594
0.00559821
0.00592615
0.00623456
0.00658204
0.006897
0.00728262
0.00764015
0.00805219
0.00846792
0.00891014
0.00944368
0.0101048
0.0109318
-0.00206816
-0.00141312
-0.00598335
-0.0112425
-0.0129843
-0.0120023
-0.0103078
-0.00885011
-0.00788513
-0.00744186
-0.0073695
-0.00726943
-0.00688574
-0.00642195
-0.00612092
-0.00596572
-0.00590902
-0.0059236
-0.00591756
-0.00588729
-0.00594135
-0.00605096
-0.00601259
-0.00573635
-0.00538494
-0.00515578
-0.00505629
-0.00498956
-0.00491419
-0.00482405
-0.00471701
-0.0046321
-0.00463813
-0.0047415
-0.00481974
-0.00477675
-0.00467695
-0.00456173
-0.00435395
-0.00410326
-0.00393236
-0.00381794
-0.00367574
-0.00353096
-0.00341179
-0.00329003
-0.00314735
-0.00300463
-0.00285698
-0.00271486
-0.0025751
-0.002438
-0.00230154
-0.00216457
-0.00205175
-0.00193074
-0.00174061
-0.00151564
-0.00130581
-0.00109096
-0.000888509
-0.000717019
-0.000562396
-0.000363901
-0.000157991
4.17774e-05
0.000257149
0.000485026
0.00069905
0.00093583
0.00119078
0.00141913
0.00161826
0.00182072
0.00205047
0.0023055
0.00257459
0.00284725
0.00310104
0.00336071
0.0036089
0.00388615
0.00415916
0.00444235
0.00472355
0.0050076
0.00530605
0.00559831
0.00592626
0.00623466
0.00658214
0.00689709
0.00728271
0.00764023
0.00805226
0.00846799
0.00891012
0.00944362
0.0101046
0.0109329
-0.00245782
-0.00160024
-0.005632
-0.0108152
-0.0127524
-0.0119079
-0.0102579
-0.00881088
-0.00785708
-0.00742568
-0.00735295
-0.00724503
-0.00686029
-0.00640439
-0.00611333
-0.00596451
-0.00590773
-0.00591845
-0.00591188
-0.00588596
-0.00594269
-0.00604925
-0.0060058
-0.00572782
-0.00537827
-0.00515156
-0.00505323
-0.00498639
-0.00491037
-0.00482021
-0.00471405
-0.00462966
-0.00463497
-0.00473759
-0.00481638
-0.0047745
-0.00467503
-0.00455952
-0.00435178
-0.00410156
-0.00393097
-0.0038166
-0.0036745
-0.00352996
-0.00341094
-0.00328923
-0.00314657
-0.00300394
-0.00285636
-0.00271424
-0.00257447
-0.00243741
-0.00230105
-0.00216411
-0.0020513
-0.00193035
-0.00174027
-0.00151528
-0.0013054
-0.00109054
-0.000888147
-0.000716709
-0.00056212
-0.000363628
-0.000157719
4.20337e-05
0.000257416
0.000485297
0.000699294
0.000936056
0.00119105
0.00141942
0.00161849
0.00182091
0.00205066
0.00230569
0.00257479
0.00284746
0.00310124
0.00336089
0.00360906
0.00388631
0.00415931
0.00444249
0.00472369
0.00500773
0.00530617
0.00559842
0.00592638
0.00623476
0.00658225
0.00689718
0.0072828
0.00764032
0.00805232
0.00846806
0.00891006
0.00944349
0.0101043
0.0109342
-0.00282251
-0.00182221
-0.00528313
-0.0103633
-0.0125039
-0.0118113
-0.0102094
-0.00877108
-0.00782644
-0.00740714
-0.00733532
-0.00722017
-0.00683439
-0.00638635
-0.00610515
-0.0059626
-0.0059057
-0.00591271
-0.00590646
-0.00588641
-0.00594659
-0.00604916
-0.00599876
-0.00571781
-0.00536996
-0.00514593
-0.00504906
-0.00498235
-0.00490581
-0.00481586
-0.00471109
-0.00462756
-0.00463174
-0.00473279
-0.0048119
-0.00477145
-0.00467232
-0.00455625
-0.00434871
-0.00409939
-0.00392922
-0.00381482
-0.00367291
-0.00352871
-0.00340987
-0.0032882
-0.00314559
-0.00300309
-0.00285561
-0.00271347
-0.00257364
-0.00243662
-0.00230042
-0.00216356
-0.00205075
-0.00192987
-0.00173989
-0.00151488
-0.00130491
-0.00109004
-0.00088774
-0.000716365
-0.000561801
-0.000363328
-0.00015744
4.23036e-05
0.000257704
0.000485587
0.000699562
0.000936313
0.00119136
0.00141974
0.00161874
0.00182112
0.00205087
0.00230591
0.00257501
0.00284771
0.00310147
0.0033611
0.00360925
0.00388649
0.00415949
0.00444266
0.00472386
0.00500787
0.00530631
0.00559853
0.00592651
0.00623487
0.00658237
0.00689727
0.0072829
0.00764042
0.00805238
0.00846815
0.00890996
0.00944325
0.0101038
0.0109358
-0.0031471
-0.00207603
-0.00495355
-0.00989552
-0.0122384
-0.0117107
-0.0101612
-0.0087303
-0.007793
-0.00738605
-0.00731652
-0.00719483
-0.00680795
-0.00636767
-0.00609644
-0.00596026
-0.00590331
-0.00590676
-0.00590145
-0.00588846
-0.00595289
-0.00605109
-0.00599244
-0.00570731
-0.00536059
-0.00513908
-0.00504366
-0.00497722
-0.00490036
-0.00481099
-0.00470822
-0.00462605
-0.00462888
-0.00472766
-0.00480677
-0.00476787
-0.00466888
-0.00455177
-0.00434452
-0.0040966