/*--------------------------------*- C++ -*----------------------------------*\
| =========                 |                                                 |
| \\      /  F ield         | OpenFOAM: The Open Source CFD Toolbox           |
|  \\    /   O peration     | Version:  3.0.1                                 |
|   \\  /    A nd           | Web:      www.OpenFOAM.org                      |
|    \\/     M anipulation  |                                                 |
\*---------------------------------------------------------------------------*/
FoamFile
{
    version     2.0;
    format      ascii;
    class       surfaceScalarField;
    location    "4.7";
    object      phi;
}
// * * * * * * * * * * * * * * * * * * * * * * * * * * * * * * * * * * * * * //

dimensions      [0 3 -1 0 0 0 0];

internalField   nonuniform List<scalar> 
19000
(
1.14151e-06
-6.46949e-08
1.15301e-06
-2.9866e-07
1.17308e-06
-2.09257e-07
1.16679e-06
-8.63029e-07
1.18813e-06
2.28382e-06
1.12605e-06
-3.52322e-07
1.12292e-06
8.65756e-07
1.12347e-06
-6.97011e-07
1.11341e-06
-1.25398e-06
1.15828e-06
-9.09766e-07
1.19529e-06
-4.42191e-07
1.17414e-06
-8.89507e-07
1.22924e-06
1.0164e-06
1.17808e-06
-4.26142e-07
1.22351e-06
1.07198e-06
1.16399e-06
2.1449e-07
1.18931e-06
8.79202e-07
1.13386e-06
2.88154e-07
1.14418e-06
5.40193e-07
2.82571e-07
1.09843e-06
1.19799e-06
-3.84262e-08
1.20891e-06
-3.09581e-07
1.22953e-06
-2.29875e-07
1.22572e-06
-8.5922e-07
1.24146e-06
2.26809e-06
1.18621e-06
-2.97075e-07
1.1724e-06
8.79567e-07
1.17519e-06
-6.99804e-07
1.16559e-06
-1.24438e-06
1.20791e-06
-9.52085e-07
1.24454e-06
-4.78824e-07
1.23054e-06
-8.75504e-07
1.27976e-06
9.67179e-07
1.24028e-06
-3.8667e-07
1.26193e-06
1.05033e-06
1.23387e-06
2.42558e-07
1.2221e-06
8.9097e-07
1.20628e-06
3.03972e-07
1.17604e-06
5.70428e-07
2.71825e-07
1.18679e-06
1.25858e-06
-1.42192e-08
1.26735e-06
-3.1836e-07
1.29004e-06
-2.52564e-07
1.28579e-06
-8.5497e-07
1.30031e-06
2.25358e-06
1.25171e-06
-2.48474e-07
1.23262e-06
8.98655e-07
1.23593e-06
-7.03118e-07
1.22506e-06
-1.2335e-06
1.25939e-06
-9.86415e-07
1.29724e-06
-5.1667e-07
1.2898e-06
-8.68069e-07
1.33436e-06
9.2262e-07
1.30563e-06
-3.57942e-07
1.31718e-06
1.03878e-06
1.30129e-06
2.5845e-07
1.2868e-06
9.0546e-07
1.27612e-06
3.14649e-07
1.2633e-06
5.83248e-07
2.7924e-07
1.25588e-06
1.32319e-06
6.69359e-09
1.32865e-06
-3.23822e-07
1.35283e-06
-2.76739e-07
1.3493e-06
-8.51441e-07
1.36314e-06
2.23974e-06
1.32169e-06
-2.07023e-07
1.30078e-06
9.19568e-07
1.3005e-06
-7.02841e-07
1.28802e-06
-1.22102e-06
1.31466e-06
-1.01306e-06
1.35304e-06
-5.55044e-07
1.35263e-06
-8.67657e-07
1.39243e-06
8.82815e-07
1.37352e-06
-3.3903e-07
1.38205e-06
1.03025e-06
1.36912e-06
2.71383e-07
1.36407e-06
9.10509e-07
1.34883e-06
3.29882e-07
1.35259e-06
5.79491e-07
2.95501e-07
1.33633e-06
1.39169e-06
2.33573e-08
1.39358e-06
-3.25707e-07
1.417e-06
-3.00164e-07
1.41527e-06
-8.49711e-07
1.42957e-06
2.22544e-06
1.39407e-06
-1.71523e-07
1.37577e-06
9.37865e-07
1.36999e-06
-6.97067e-07
1.35501e-06
-1.20603e-06
1.37464e-06
-1.03269e-06
1.41209e-06
-5.92491e-07
1.41676e-06
-8.72336e-07
1.45499e-06
8.44589e-07
1.44169e-06
-3.25731e-07
1.45141e-06
1.02054e-06
1.4376e-06
2.85193e-07
1.44244e-06
9.05669e-07
1.42425e-06
3.48071e-07
1.43534e-06
5.68402e-07
3.14306e-07
1.41653e-06
1.46364e-06
3.53925e-08
1.46285e-06
-3.24912e-07
1.48212e-06
-3.19439e-07
1.48231e-06
-8.49904e-07
1.49829e-06
2.20947e-06
1.46776e-06
-1.40994e-07
1.45569e-06
9.49938e-07
1.4441e-06
-6.85482e-07
1.42572e-06
-1.18765e-06
1.43908e-06
-1.04606e-06
1.47389e-06
-6.27299e-07
1.48146e-06
-8.79905e-07
1.52129e-06
8.04758e-07
1.51059e-06
-3.15036e-07
1.52292e-06
1.00821e-06
1.50811e-06
3.00009e-07
1.52068e-06
8.93099e-07
1.50137e-06
3.67377e-07
1.51611e-06
5.53664e-07
3.34903e-07
1.49551e-06
1.53841e-06
4.31996e-08
1.53644e-06
-3.2294e-07
1.5484e-06
-3.31406e-07
1.54966e-06
-8.5116e-07
1.56838e-06
2.19075e-06
1.5428e-06
-1.15409e-07
1.53967e-06
9.53068e-07
1.52302e-06
-6.68838e-07
1.50073e-06
-1.16536e-06
1.50799e-06
-1.05331e-06
1.53842e-06
-6.57732e-07
1.5473e-06
-8.88786e-07
1.59039e-06
7.61663e-07
1.58121e-06
-3.05853e-07
1.5977e-06
9.91722e-07
1.58257e-06
3.15134e-07
1.60123e-06
8.74444e-07
1.58092e-06
3.87685e-07
1.5979e-06
5.36681e-07
3.57243e-07
1.57556e-06
1.61556e-06
4.77636e-08
1.61366e-06
-3.21033e-07
1.61667e-06
-3.3442e-07
1.61792e-06
-8.52407e-07
1.64018e-06
2.16849e-06
1.6201e-06
-9.53298e-08
1.6273e-06
9.45865e-07
1.60639e-06
-6.47929e-07
1.58049e-06
-1.13946e-06
1.58167e-06
-1.05449e-06
1.60606e-06
-6.82125e-07
1.61519e-06
-8.97916e-07
1.6618e-06
7.15054e-07
1.65401e-06
-2.98064e-07
1.67639e-06
9.69349e-07
1.66132e-06
3.30197e-07
1.68499e-06
8.50775e-07
1.66302e-06
4.09655e-07
1.68104e-06
5.18662e-07
3.80822e-07
1.65746e-06
1.69513e-06
5.02069e-08
1.69378e-06
-3.19677e-07
1.68809e-06
-3.2874e-07
1.68885e-06
-8.53161e-07
1.71523e-06
2.1421e-06
1.70084e-06
-8.09365e-08
1.71808e-06
9.28622e-07
1.69351e-06
-6.23354e-07
1.66504e-06
-1.11099e-06
1.66041e-06
-1.04986e-06
1.67736e-06
-6.99069e-07
1.68571e-06
-9.06266e-07
1.73528e-06
6.65477e-07
1.72876e-06
-2.91537e-07
1.75822e-06
9.39885e-07
1.74315e-06
3.45267e-07
1.77107e-06
8.2285e-07
1.74704e-06
4.33692e-07
1.76487e-06
5.0083e-07
4.04642e-07
1.74105e-06
1.7775e-06
5.14267e-08
1.7765e-06
-3.18679e-07
1.76385e-06
-3.16089e-07
1.76435e-06
-8.53663e-07
1.79536e-06
2.1111e-06
1.78579e-06
-7.13608e-08
1.81114e-06
9.03269e-07
1.78349e-06
-5.95705e-07
1.75385e-06
-1.08135e-06
1.74407e-06
-1.04008e-06
1.75285e-06
-7.07854e-07
1.75908e-06
-9.12487e-07
1.81049e-06
6.14061e-07
1.80461e-06
-2.85657e-07
1.84147e-06
9.03023e-07
1.82614e-06
3.60597e-07
1.85771e-06
7.91281e-07
1.832e-06
4.59409e-07
1.84863e-06
4.84196e-07
4.27345e-07
1.82593e-06
1.8632e-06
5.19735e-08
1.86207e-06
-3.17546e-07
1.84487e-06
-2.98889e-07
1.84552e-06
-8.54316e-07
1.88145e-06
2.07517e-06
1.87491e-06
-6.48216e-08
1.90547e-06
8.72713e-07
1.87561e-06
-5.65847e-07
1.84612e-06
-1.05186e-06
1.83206e-06
-1.02602e-06
1.83315e-06
-7.0895e-07
1.8355e-06
-9.14832e-07
1.88717e-06
5.62394e-07
1.8808e-06
-2.7929e-07
1.92438e-06
8.59442e-07
1.90866e-06
3.76313e-07
1.94331e-06
7.56631e-07
1.91717e-06
4.85554e-07
1.93199e-06
4.69375e-07
4.47399e-07
1.91194e-06
1.9527e-06
5.21083e-08
1.95099e-06
-3.15833e-07
1.93166e-06
-2.79557e-07
1.93237e-06
-8.55021e-07
1.9731e-06
2.03443e-06
1.96766e-06
-5.9377e-08
2.00049e-06
8.39882e-07
1.9696e-06
-5.34962e-07
1.94116e-06
-1.02342e-06
1.92367e-06
-1.00852e-06
1.9188e-06
-7.04079e-07
1.91548e-06
-9.11521e-07
1.9657e-06
5.12181e-07
1.95745e-06
-2.71047e-07
2.00618e-06
8.10714e-07
1.99024e-06
3.92258e-07
2.02735e-06
7.19521e-07
2.00255e-06
5.10351e-07
2.01527e-06
4.56655e-07
4.63279e-07
1.99939e-06
2.04638e-06
5.19157e-08
2.04387e-06
-3.13319e-07
2.02432e-06
-2.60006e-07
2.02428e-06
-8.54987e-07
2.06917e-06
1.98954e-06
2.06344e-06
-5.36542e-08
2.09644e-06
8.06888e-07
2.06578e-06
-5.043e-07
2.03888e-06
-9.96518e-07
2.01847e-06
-9.88114e-07
2.01006e-06
-6.95673e-07
1.99994e-06
-9.01399e-07
2.04743e-06
4.64693e-07
2.03609e-06
-2.59707e-07
2.08788e-06
7.58925e-07
2.07207e-06
4.08066e-07
2.1108e-06
6.80792e-07
2.08906e-06
5.3209e-07
2.09942e-06
4.46291e-07
4.73686e-07
2.08902e-06
2.14451e-06
5.14086e-08
2.14123e-06
-3.10046e-07
2.1226e-06
-2.41375e-07
2.12071e-06
-8.53091e-07
2.1687e-06
1.94155e-06
2.16213e-06
-4.70869e-08
2.19436e-06
7.74659e-07
2.16488e-06
-4.74813e-07
2.13971e-06
-9.71348e-07
2.11657e-06
-9.64977e-07
2.10685e-06
-6.85957e-07
2.08989e-06
-8.84436e-07
2.13417e-06
4.20408e-07
2.11906e-06
-2.4459e-07
2.17188e-06
7.06106e-07
2.15656e-06
4.23382e-07
2.19577e-06
6.41582e-07
2.17824e-06
5.49616e-07
2.18582e-06
4.38716e-07
4.778e-07
2.18171e-06
2.24729e-06
5.06042e-08
2.24352e-06
-3.0627e-07
2.22619e-06
-2.24048e-07
2.22148e-06
-8.48384e-07
2.27147e-06
1.89157e-06
2.26407e-06
-3.96899e-08
2.29564e-06
7.43091e-07
2.26775e-06
-4.46923e-07
2.2444e-06
-9.48001e-07
2.21853e-06
-9.39106e-07
2.20882e-06
-6.76247e-07
2.18601e-06
-8.61623e-07
2.22731e-06
3.79106e-07
2.2084e-06
-2.25679e-07
2.2607e-06
6.53804e-07
2.24612e-06
4.37968e-07
2.28444e-06
6.03261e-07
2.27169e-06
5.62363e-07
2.27612e-06
4.34286e-07
4.75652e-07
2.27827e-06
2.35492e-06
4.95604e-08
2.35099e-06
-3.02341e-07
2.33484e-06
-2.07897e-07
2.32682e-06
-8.40361e-07
2.37792e-06
1.84047e-06
2.36992e-06
-3.16924e-08
2.40148e-06
7.11529e-07
2.3751e-06
-4.20543e-07
2.35363e-06
-9.26533e-07
2.32509e-06
-9.1056e-07
2.31571e-06
-6.66873e-07
2.28841e-06
-8.34324e-07
2.3272e-06
3.40314e-07
2.30498e-06
-2.03455e-07
2.35577e-06
6.03016e-07
2.34212e-06
4.51618e-07
2.37823e-06
5.67147e-07
2.37049e-06
5.70109e-07
2.37189e-06
4.32887e-07
4.68198e-07
2.37934e-06
2.46758e-06
4.83748e-08
2.46381e-06
-2.98571e-07
2.44851e-06
-1.92597e-07
2.43709e-06
-8.28943e-07
2.48879e-06
1.78876e-06
2.48039e-06
-2.32873e-08
2.51265e-06
6.79271e-07
2.48739e-06
-3.95284e-07
2.46777e-06
-9.06913e-07
2.43681e-06
-8.796e-07
2.42753e-06
-6.57596e-07
2.39689e-06
-8.03685e-07
2.43345e-06
3.03756e-07
2.40865e-06
-1.78654e-07
2.45725e-06
5.54422e-07
2.44486e-06
4.63999e-07
2.4778e-06
5.34209e-07
2.47515e-06
5.72759e-07
2.47402e-06
4.34019e-07
4.56797e-07
2.48542e-06
2.58551e-06
4.71614e-08
2.5821e-06
-2.95164e-07
2.56732e-06
-1.77819e-07
2.55275e-06
-8.14366e-07
2.60489e-06
1.73662e-06
2.59614e-06
-1.45425e-08
2.62957e-06
6.45841e-07
2.60495e-06
-3.70668e-07
2.58701e-06
-8.88971e-07
2.55405e-06
-8.46642e-07
2.54454e-06
-6.48081e-07
2.51135e-06
-7.70495e-07
2.54561e-06
2.69496e-07
2.51907e-06
-1.52117e-07
2.56489e-06
5.086e-07
2.55427e-06
4.7462e-07
2.58351e-06
5.04969e-07
2.58595e-06
5.7032e-07
2.58308e-06
4.36897e-07
4.4285e-07
2.59702e-06
2.70896e-06
4.60282e-08
2.70602e-06
-2.92222e-07
2.6915e-06
-1.63296e-07
2.67419e-06
-7.97063e-07
2.72684e-06
1.68398e-06
2.71771e-06
-5.40908e-09
2.75252e-06
6.11033e-07
2.7281e-06
-3.4625e-07
2.71154e-06
-8.72408e-07
2.67703e-06
-8.12137e-07
2.66703e-06
-6.38083e-07
2.63196e-06
-7.35419e-07
2.66364e-06
2.37809e-07
2.63627e-06
-1.24749e-07
2.67884e-06
4.66035e-07
2.67051e-06
4.82951e-07
2.69588e-06
4.796e-07
2.70323e-06
5.62972e-07
2.6995e-06
4.40625e-07
4.27649e-07
2.7147e-06
2.83823e-06
4.5066e-08
2.83579e-06
-2.89785e-07
2.82132e-06
-1.4882e-07
2.80181e-06
-7.77554e-07
2.85514e-06
1.63064e-06
2.8455e-06
4.23673e-09
2.8817e-06
5.74825e-07
2.85712e-06
-3.21671e-07
2.84158e-06
-8.56868e-07
2.80595e-06
-7.76501e-07
2.79526e-06
-6.2739e-07
2.75908e-06
-6.9924e-07
2.78791e-06
2.08975e-07
2.76061e-06
-9.74485e-08
2.79965e-06
4.26999e-07
2.79401e-06
4.88591e-07
2.81558e-06
4.58029e-07
2.82736e-06
5.51186e-07
2.82362e-06
4.4437e-07
4.12288e-07
2.83898e-06
2.97361e-06
4.43479e-08
2.9717e-06
-2.87869e-07
2.95711e-06
-1.34231e-07
2.93589e-06
-7.56339e-07
2.99011e-06
1.57643e-06
2.9798e-06
1.4547e-08
3.01734e-06
5.37283e-07
2.99235e-06
-2.96679e-07
2.97747e-06
-8.41988e-07
2.9411e-06
-7.40129e-07
2.92942e-06
-6.15712e-07
2.89307e-06
-6.62894e-07
2.91884e-06
1.83203e-07
2.89243e-06
-7.10368e-08
2.92794e-06
3.91495e-07
2.92517e-06
4.91356e-07
2.94322e-06
4.3998e-07
2.9587e-06
5.35705e-07
2.95563e-06
4.47441e-07
3.9766e-07
2.97026e-06
3.11542e-06
4.39315e-08
3.11403e-06
-2.86477e-07
3.09922e-06
-1.19424e-07
3.07671e-06
-7.33821e-07
3.13198e-06
1.52115e-06
3.12086e-06
2.56694e-08
3.15962e-06
4.98519e-07
3.13408e-06
-2.71137e-07
3.11951e-06
-8.27422e-07
3.08282e-06
-7.0343e-07
3.06975e-06
-6.02648e-07
3.0342e-06
-6.27346e-07
3.05682e-06
1.60585e-07
3.0319e-06
-4.61161e-08
3.06411e-06
3.59286e-07
3.06422e-06
4.91249e-07
3.07909e-06
4.25105e-07
3.0975e-06
5.17296e-07
3.09558e-06
4.49357e-07
3.84492e-07
3.10875e-06
3.26398e-06
4.38597e-08
3.26311e-06
-2.85603e-07
3.24803e-06
-1.04345e-07
3.22449e-06
-7.10281e-07
3.28097e-06
1.46467e-06
3.26891e-06
3.77299e-08
3.30876e-06
4.58674e-07
3.28265e-06
-2.45026e-07
3.26805e-06
-8.12828e-07
3.23149e-06
-6.66873e-07
3.21654e-06
-5.87697e-07
3.18266e-06
-5.93466e-07
3.20214e-06
1.41105e-07
3.17904e-06
-2.30175e-08
3.20834e-06
3.29986e-07
3.21119e-06
4.88398e-07
3.22323e-06
4.13073e-07
3.24387e-06
4.96653e-07
3.24346e-06
4.49768e-07
3.73298e-07
3.25465e-06
3.41963e-06
4.41614e-08
3.41926e-06
-2.85231e-07
3.40391e-06
-8.89994e-08
3.37951e-06
-6.85876e-07
3.43731e-06
1.40687e-06
3.42421e-06
5.0824e-08
3.46497e-06
4.17921e-07
3.43838e-06
-2.18441e-07
3.42341e-06
-7.97853e-07
3.38752e-06
-6.30986e-07
3.37016e-06
-5.70334e-07
3.3386e-06
-5.61909e-07
3.35511e-06
1.24593e-07
3.33387e-06
-1.77842e-09
3.36069e-06
3.03166e-07
3.3661e-06
4.82988e-07
3.3756e-06
4.03575e-07
3.39783e-06
4.74422e-07
3.39932e-06
4.48278e-07
3.64474e-07
3.40815e-06
3.58272e-06
4.48516e-08
3.58282e-06
-2.8533e-07
3.56727e-06
-7.34444e-08
3.54205e-06
-6.6066e-07
3.60125e-06
1.34768e-06
3.58705e-06
6.50175e-08
3.62851e-06
3.76459e-07
3.60165e-06
-1.91579e-07
3.58591e-06
-7.82111e-07
3.55129e-06
-5.96368e-07
3.53106e-06
-5.50107e-07
3.50217e-06
-5.33011e-07
3.51605e-06
1.10714e-07
3.49647e-06
1.7801e-08
3.52119e-06
2.78444e-07
3.52902e-06
4.75159e-07
3.53623e-06
3.96364e-07
3.5594e-06
4.51248e-07
3.56326e-06
4.44421e-07
3.58187e-07
3.56955e-06
3.75362e-06
4.59322e-08
3.75415e-06
-2.85857e-07
3.7385e-06
-5.77918e-08
3.71244e-06
-6.34605e-07
3.77307e-06
1.28705e-06
3.75775e-06
8.03356e-08
3.79968e-06
3.34527e-07
3.77283e-06
-1.64728e-07
3.7559e-06
-7.65182e-07
3.72319e-06
-5.63653e-07
3.69976e-06
-5.2668e-07
3.67353e-06
-5.06781e-07
3.6853e-06
9.89501e-08
3.66696e-06
3.61323e-08
3.68991e-06
2.55501e-07
3.70007e-06
4.64992e-07
3.70523e-06
3.91205e-07
3.72865e-06
4.27832e-07
3.73537e-06
4.37701e-07
3.5429e-07
3.73927e-06
3.93273e-06
4.73935e-08
3.93362e-06
-2.86751e-07
3.91803e-06
-4.22053e-08
3.89105e-06
-6.07616e-07
3.9531e-06
1.22499e-06
3.93668e-06
9.67608e-08
3.9788e-06
2.9241e-07
3.95233e-06
-1.38262e-07
3.93375e-06
-7.46603e-07
3.90354e-06
-5.33444e-07
3.87677e-06
-4.99909e-07
3.8529e-06
-4.82914e-07
3.8632e-06
8.86551e-08
3.84567e-06
5.36668e-08
3.86691e-06
2.34255e-07
3.8795e-06
4.52403e-07
3.88289e-06
3.87815e-07
3.9057e-06
4.05026e-07
3.91575e-06
4.27654e-07
3.52262e-07
3.91777e-06
4.12043e-06
4.92158e-08
4.1216e-06
-2.87928e-07
4.1063e-06
-2.68983e-08
4.07824e-06
-5.79557e-07
4.1417e-06
1.16153e-06
4.12424e-06
1.14216e-07
4.1662e-06
2.50453e-07
4.14056e-06
-1.12626e-07
4.11985e-06
-7.2589e-07
4.09263e-06
-5.06223e-07
4.06265e-06
-4.69933e-07
4.04054e-06
-4.60805e-07
4.05009e-06
7.9105e-08
4.03295e-06
7.08056e-08
4.05237e-06
2.14834e-07
4.06753e-06
4.37252e-07
4.06957e-06
3.85766e-07
4.09082e-06
3.83779e-07
4.10446e-06
4.14019e-07
3.51183e-07
4.10554e-06
4.31715e-06
5.13704e-08
4.3185e-06
-2.89281e-07
4.30372e-06
-1.21216e-08
4.27445e-06
-5.50279e-07
4.33923e-06
1.09675e-06
4.32089e-06
1.32556e-07
4.36227e-06
2.09075e-07
4.33796e-06
-8.83234e-08
4.31462e-06
-7.02545e-07
4.29072e-06
-4.8232e-07
4.25796e-06
-4.37182e-07
4.2368e-06
-4.39637e-07
4.24625e-06
6.9656e-08
4.22936e-06
8.76945e-08
4.24655e-06
1.97636e-07
4.26436e-06
4.19451e-07
4.26572e-06
3.84405e-07
4.28453e-06
3.64965e-07
4.30153e-06
3.97024e-07
3.49754e-07
4.30296e-06
4.52332e-06
5.38204e-08
4.52472e-06
-2.9068e-07
4.51076e-06
1.84069e-09
4.48011e-06
-5.19633e-07
4.54609e-06
1.03077e-06
4.52711e-06
1.51538e-07
4.5674e-06
1.68785e-07
4.54498e-06
-6.58987e-08
4.51855e-06
-6.76118e-07
4.4981e-06
-4.61872e-07
4.46324e-06
-4.02316e-07
4.44209e-06
-4.18492e-07
4.45199e-06
5.97569e-08
4.43542e-06
1.04267e-07
4.44985e-06
1.83205e-07
4.47024e-06
3.99062e-07
4.47181e-06
3.82833e-07
4.4875e-06
3.49273e-07
4.5071e-06
3.77429e-07
3.46609e-07
4.51024e-06
4.73941e-06
5.65208e-08
4.7407e-06
-2.91968e-07
4.72785e-06
1.46899e-08
4.69571e-06
-4.8749e-07
4.7627e-06
9.63786e-07
4.74341e-06
1.7082e-07
4.78202e-06
1.30176e-07
4.76204e-06
-4.59117e-08
4.73221e-06
-6.46291e-07
4.71507e-06
-4.44734e-07
4.67899e-06
-3.66233e-07
4.65694e-06
-3.96446e-07
4.66766e-06
4.90359e-08
4.65173e-06
1.202e-07
4.66279e-06
1.72146e-07
4.6855e-06
3.76354e-07
4.68822e-06
3.80112e-07
4.70062e-06
3.36867e-07
4.72149e-06
3.56557e-07
3.4062e-07
4.72748e-06
4.9659e-06
5.94175e-08
4.9669e-06
-2.92965e-07
4.95546e-06
2.61302e-08
4.92174e-06
-4.53771e-07
4.98946e-06
8.96065e-07
4.97031e-06
1.89969e-07
5.00659e-06
9.38932e-08
4.98957e-06
-2.88904e-08
4.95621e-06
-6.12933e-07
4.94198e-06
-4.305e-07
4.90571e-06
-3.29967e-07
4.88195e-06
-3.72682e-07
4.8936e-06
3.73919e-08
4.87885e-06
1.34942e-07
4.88609e-06
1.64912e-07
4.9105e-06
3.51946e-07
4.91531e-06
3.75294e-07
4.92467e-06
3.27513e-07
4.9453e-06
3.35923e-07
3.31173e-07
4.95475e-06
5.20329e-06
6.24474e-08
5.20379e-06
-2.93471e-07
5.19403e-06
3.58914e-08
5.15873e-06
-4.18469e-07
5.22684e-06
8.27955e-07
5.20832e-06
2.08487e-07
5.2416e-06
6.06164e-08
5.22802e-06
-1.53084e-08
5.19122e-06
-5.76134e-07
5.17923e-06
-4.18515e-07
5.14389e-06
-2.94627e-07
5.11779e-06
-3.46578e-07
5.13017e-06
2.50111e-08
5.11738e-06
1.47728e-07
5.12058e-06
1.61716e-07
5.14577e-06
3.2675e-07
5.15334e-06
3.6773e-07
5.1604e-06
3.20449e-07
5.17934e-06
3.16983e-07
3.18416e-07
5.1921e-06
5.4521e-06
6.5537e-08
5.4519e-06
-2.93268e-07
5.44403e-06
4.37605e-08
5.40724e-06
-3.81681e-07
5.47529e-06
7.599e-07
5.45798e-06
2.25805e-07
5.48758e-06
3.10159e-08
5.47779e-06
-5.51608e-09
5.4379e-06
-5.36249e-07
5.4273e-06
-4.07916e-07
5.39395e-06
-2.6127e-07
5.36521e-06
-3.17847e-07
5.37783e-06
1.23927e-08
5.36778e-06
1.57782e-07
5.36726e-06
1.62239e-07
5.39197e-06
3.0204e-07
5.40258e-06
3.57114e-07
5.40833e-06
3.147e-07
5.42465e-06
3.00661e-07
3.03259e-07
5.43981e-06
5.71289e-06
6.86054e-08
5.71176e-06
-2.92134e-07
5.70591e-06
4.96052e-08
5.66787e-06
-3.43637e-07
5.73535e-06
6.92421e-07
5.71983e-06
2.41324e-07
5.74513e-06
5.71242e-09
5.73931e-06
3.07001e-10
5.69696e-06
-4.93898e-07
5.68674e-06
-3.977e-07
5.6563e-06
-2.3083e-07
5.62502e-06
-2.86571e-07
5.63711e-06
3.04951e-10
5.63038e-06
1.6451e-07
5.62689e-06
1.65727e-07
5.64978e-06
2.79156e-07
5.6634e-06
3.43492e-07
5.66883e-06
3.09272e-07
5.68226e-06
2.87227e-07
2.87043e-07
5.69848e-06
5.98623e-06
7.15645e-08
5.98395e-06
-2.89847e-07
5.98017e-06
5.33821e-08
5.94123e-06
-3.04697e-07
6.00755e-06
6.26105e-07
5.99443e-06
2.54438e-07
6.01493e-06
-1.47808e-08
6.01302e-06
2.21448e-09
5.96901e-06
-4.49893e-07
5.95821e-06
-3.86896e-07
5.93131e-06
-2.0393e-07
5.89801e-06
-2.53276e-07
5.90858e-06
-1.02622e-08
5.9056e-06
1.67493e-07
5.90003e-06
1.71292e-07
5.92012e-06
2.59069e-07
5.93623e-06
3.27378e-07
5.94223e-06
3.03274e-07
5.95313e-06
2.76328e-07
2.71208e-07
5.96897e-06
6.27273e-06
7.43208e-08
6.26909e-06
-2.8621e-07
6.26732e-06
5.51571e-08
6.22799e-06
-2.65363e-07
6.29248e-06
5.61608e-07
6.28234e-06
2.64585e-07
6.2977e-06
-3.01398e-08
6.29938e-06
5.3257e-10
6.25471e-06
-4.05226e-07
6.24241e-06
-3.74593e-07
6.21939e-06
-1.80916e-07
6.1849e-06
-2.18777e-07
6.19294e-06
-1.83074e-08
6.19374e-06
1.66693e-07
6.18722e-06
1.77817e-07
6.20389e-06
2.4239e-07
6.22169e-06
3.0958e-07
6.22884e-06
2.96122e-07
6.23796e-06
2.67208e-07
2.56796e-07
6.25238e-06
6.57302e-06
7.67736e-08
6.56785e-06
-2.81047e-07
6.56795e-06
5.50588e-08
6.52883e-06
-2.26242e-07
6.59078e-06
4.99655e-07
6.5841e-06
2.71272e-07
6.59418e-06
-4.022e-08
6.59891e-06
-4.20341e-09
6.55466e-06
-3.60973e-07
6.54011e-06
-3.6004e-07
6.52096e-06
-1.61771e-07
6.48625e-06
-1.8407e-07
6.49094e-06
-2.29971e-08
6.49525e-06
1.62386e-07
6.48883e-06
1.84233e-07
6.50195e-06
2.29278e-07
6.52051e-06
2.91016e-07
6.52916e-06
2.87472e-07
6.53726e-06
2.59106e-07
2.44291e-07
6.54977e-06
6.88775e-06
7.88148e-08
6.88089e-06
-2.7419e-07
6.88284e-06
5.31097e-08
6.84448e-06
-1.87883e-07
6.90315e-06
4.40992e-07
6.9003e-06
2.74119e-07
6.90513e-06
-4.50474e-08
6.91218e-06
-1.12599e-08
6.86942e-06
-3.18213e-07
6.85214e-06
-3.42755e-07
6.83646e-06
-1.46093e-07
6.80257e-06
-1.50185e-07
6.80351e-06
-2.3937e-08
6.81054e-06
1.55359e-07
6.80531e-06
1.89462e-07
6.81511e-06
2.19484e-07
6.83348e-06
2.72645e-07
6.84374e-06
2.77211e-07
6.85142e-06
2.51423e-07
2.336e-07
6.86211e-06
7.21762e-06
8.03294e-08
7.2089e-06
-2.65464e-07
7.21276e-06
4.92434e-08
7.17555e-06
-1.50668e-07
7.23029e-06
3.86245e-07
7.23156e-06
2.72857e-07
7.23138e-06
-4.48757e-08
7.23981e-06
-1.9685e-08
7.19952e-06
-2.77922e-07
7.17936e-06
-3.22601e-07
7.16646e-06
-1.33185e-07
7.13437e-06
-1.181e-07
7.13144e-06
-2.10068e-08
7.14027e-06
1.46534e-07
7.13708e-06
1.92642e-07
7.14409e-06
2.12479e-07
7.16145e-06
2.55287e-07
7.17325e-06
2.65411e-07
7.18087e-06
2.43802e-07
2.24184e-07
7.19028e-06
7.56336e-06
8.11986e-08
7.55257e-06
-2.54673e-07
7.55843e-06
4.33759e-08
7.52262e-06
-1.14856e-07
7.57292e-06
3.35944e-07
7.57849e-06
2.67289e-07
7.57387e-06
-4.02574e-08
7.58248e-06
-2.82954e-08
7.54544e-06
-2.40877e-07
7.52256e-06
-2.99719e-07
7.51166e-06
-1.2229e-07
7.48203e-06
-8.84719e-08
7.47557e-06
-1.45389e-08
7.48518e-06
1.36922e-07
7.48456e-06
1.9326e-07
7.4896e-06
2.07439e-07
7.50532e-06
2.39568e-07
7.51831e-06
2.52424e-07
7.52627e-06
2.35841e-07
2.15689e-07
7.53476e-06
7.9257e-06
8.13118e-08
7.91264e-06
-2.4161e-07
7.92056e-06
3.5448e-08
7.88649e-06
-8.07799e-08
7.93178e-06
2.90654e-07
7.94179e-06
2.57274e-07
7.93363e-06
-3.20924e-08
7.94106e-06
-3.5727e-08
7.90766e-06
-2.07475e-07
7.88243e-06
-2.74497e-07
7.87276e-06
-1.1262e-07
7.84606e-06
-6.17646e-08
7.83665e-06
-5.13249e-09
7.84614e-06
1.2743e-07
7.84826e-06
1.91142e-07
7.85223e-06
2.03474e-07
7.86601e-06
2.25789e-07
7.8796e-06
2.38826e-07
7.88825e-06
2.2719e-07
2.07832e-07
7.89611e-06
8.30541e-06
8.0582e-08
8.28995e-06
-2.26146e-07
8.29983e-06
2.55647e-08
8.26794e-06
-4.8892e-08
8.3079e-06
2.50694e-07
8.32264e-06
2.42537e-07
8.31157e-06
-2.10179e-08
8.31615e-06
-4.03161e-08
8.28649e-06
-1.77812e-07
8.25964e-06
-2.47642e-07
8.25045e-06
-1.03435e-07
8.22708e-06
-3.83914e-08
8.21551e-06
6.4367e-09
8.22408e-06
1.18855e-07
8.22877e-06
1.86457e-07
8.23255e-06
1.99688e-07
8.24438e-06
2.13958e-07
8.25794e-06
2.25268e-07
8.26742e-06
2.17718e-07
2.00241e-07
8.27501e-06
8.70327e-06
7.89697e-08
8.68548e-06
-2.08347e-07
8.6969e-06
1.41387e-08
8.66783e-06
-1.9819e-08
8.70142e-06
2.17101e-07
8.71849e-06
2.25473e-07
8.70654e-06
-9.07121e-09
8.70843e-06
-4.22114e-08
8.68246e-06
-1.5184e-07
8.65477e-06
-2.19953e-07
8.64555e-06
-9.4213e-08
8.62578e-06
-1.8621e-08
8.61305e-06
1.9167e-08
8.62015e-06
1.1176e-07
8.62692e-06
1.79686e-07
8.63116e-06
1.95447e-07
8.64134e-06
2.03777e-07
8.65433e-06
2.12278e-07
8.66452e-06
2.0753e-07
1.92623e-07
8.67213e-06
9.12009e-06
7.65005e-08
9.10028e-06
-1.8854e-07
9.11239e-06
2.02967e-09
9.0869e-06
5.67528e-09
9.1134e-06
1.90597e-07
9.1329e-06
2.0597e-07
9.12128e-06
2.54824e-09
9.12006e-06
-4.09909e-08
9.09674e-06
-1.28517e-07
9.06887e-06
-1.92079e-07
9.05916e-06
-8.45101e-08
9.04298e-06
-2.44227e-09
9.0302e-06
3.19485e-08
9.03547e-06
1.0649e-07
9.04365e-06
1.71509e-07
9.04871e-06
1.90382e-07
9.05766e-06
1.94828e-07
9.06977e-06
2.0017e-07
9.08036e-06
1.96946e-07
1.84716e-07
9.08826e-06
9.55668e-06
7.32758e-08
9.53553e-06
-1.67382e-07
9.54717e-06
-9.61682e-09
9.52652e-06
2.63262e-08
9.54641e-06
1.70705e-07
9.56651e-06
1.85872e-07
9.55599e-06
1.30742e-08
9.55181e-06
-3.68121e-08
9.53049e-06
-1.07196e-07
9.50299e-06
-1.64585e-07
9.49265e-06
-7.41665e-08
9.47979e-06
1.04141e-08
9.4678e-06
4.39359e-08
9.47124e-06
1.03059e-07
9.48006e-06
1.62684e-07
9.48613e-06
1.8431e-07
9.49415e-06
1.86815e-07
9.50531e-06
1.89006e-07
9.51593e-06
1.86323e-07
1.76403e-07
9.52424e-06
1.0014e-05
6.94574e-08
9.99231e-06
-1.45736e-07
1.00023e-05
-1.96307e-08
9.98729e-06
4.13573e-08
1.00014e-05
1.5655e-07
1.00204e-05
1.66895e-07
1.00114e-05
2.20734e-08
1.00048e-05
-3.019e-08
9.98503e-06
-8.74223e-08
9.9583e-06
-1.37859e-07
9.94734e-06
-6.32088e-08
9.93733e-06
2.04255e-08
9.92668e-06
5.45855e-08
9.92846e-06
1.01281e-07
9.93732e-06
1.53827e-07
9.94437e-06
1.77258e-07
9.95177e-06
1.79415e-07
9.96194e-06
1.78833e-07
9.97241e-06
1.75857e-07
1.67932e-07
9.98088e-06
1.04928e-05
6.52555e-08
1.04716e-05
-1.24529e-07
1.0479e-05
-2.70231e-08
1.04697e-05
5.07101e-08
1.04796e-05
1.46637e-07
1.04962e-05
1.50328e-07
1.04886e-05
2.96141e-08
1.04803e-05
-2.18311e-08
1.04617e-05
-6.88395e-08
1.0436e-05
-1.12182e-07
1.04245e-05
-5.172e-08
1.04167e-05
2.82782e-08
1.04077e-05
6.35597e-08
1.04083e-05
1.00698e-07
1.04166e-05
1.4549e-07
1.04244e-05
1.695e-07
1.04316e-05
1.72195e-07
1.04407e-05
1.69668e-07
1.04508e-05
1.65808e-07
1.59353e-07
1.04594e-05
1.09944e-05
6.08802e-08
1.09744e-05
-1.04539e-07
1.09786e-05
-3.12393e-08
1.09742e-05
5.51249e-08
1.09816e-05
1.39259e-07
1.09951e-05
1.3677e-07
1.09887e-05
3.60214e-08
1.09792e-05
-1.23308e-08
1.09617e-05
-5.12617e-08
1.09373e-05
-8.78715e-08
1.09252e-05
-3.96171e-08
1.0919e-05
3.45282e-08
1.09117e-05
7.08513e-08
1.09116e-05
1.00842e-07
1.09191e-05
1.37964e-07
1.09272e-05
1.61382e-07
1.09346e-05
1.64825e-07
1.09428e-05
1.61474e-07
1.09523e-05
1.5627e-07
1.50783e-07
1.09609e-05
1.15197e-05
5.65239e-08
1.15015e-05
-8.62893e-08
1.15026e-05
-3.23772e-08
1.15017e-05
5.60518e-08
1.15082e-05
1.3275e-07
1.15187e-05
1.26261e-07
1.15128e-05
4.1923e-08
1.15026e-05
-2.14549e-09
1.1486e-05
-3.46866e-08
1.14634e-05
-6.52226e-08
1.14507e-05
-2.69301e-08
1.14454e-05
3.98122e-08
1.14398e-05
7.64999e-08
1.14393e-05
1.01288e-07
1.14459e-05
1.31348e-07
1.14541e-05
1.53181e-07
1.14617e-05
1.57304e-07
1.14692e-05
1.53902e-07
1.14781e-05
1.47423e-07
1.42273e-07
1.14866e-05
1.207e-05
5.23384e-08
1.20538e-05
-7.01055e-08
1.20524e-05
-3.09937e-08
1.20534e-05
5.50828e-08
1.206e-05
1.26159e-07
1.2068e-05
1.18273e-07
1.20619e-05
4.80265e-08
1.20514e-05
8.36054e-09
1.20358e-05
-1.91235e-08
1.2015e-05
-4.43889e-08
1.20021e-05
-1.40652e-08
1.19972e-05
4.47386e-08
1.1993e-05
8.06567e-08
1.19925e-05
1.01856e-07
1.19983e-05
1.25466e-07
1.20064e-05
1.45168e-07
1.2014e-05
1.49649e-07
1.20213e-05
1.46624e-07
1.20293e-05
1.39437e-07
1.33937e-07
1.20376e-05
1.26465e-05
4.84309e-08
1.26324e-05
-5.60302e-08
1.26292e-05
-2.77418e-08
1.26307e-05
5.35705e-08
1.26376e-05
1.19246e-07
1.26439e-05
1.11924e-07
1.26374e-05
5.45953e-08
1.26265e-05
1.92044e-08
1.2612e-05
-4.61493e-09
1.25932e-05
-2.5563e-08
1.25806e-05
-1.45871e-09
1.25757e-05
4.96366e-08
1.25727e-05
8.36729e-08
1.25722e-05
1.02302e-07
1.25774e-05
1.20324e-07
1.25851e-05
1.37407e-07
1.25928e-05
1.42007e-07
1.26e-05
1.39398e-07
1.26073e-05
1.32187e-07
1.25949e-07
1.26152e-05
1.32505e-05
4.48783e-08
1.3238e-05
-4.35295e-08
1.32336e-05
-2.33244e-08
1.32348e-05
5.23254e-08
1.32418e-05
1.12251e-07
1.32473e-05
1.06457e-07
1.32406e-05
6.12998e-08
1.32293e-05
3.04802e-08
1.32158e-05
8.83994e-09
1.31991e-05
-8.79773e-09
1.31872e-05
1.04298e-08
1.31823e-05
5.44955e-08
1.318e-05
8.59807e-08
1.31798e-05
1.02517e-07
1.31843e-05
1.15876e-07
1.31918e-05
1.29909e-07
1.31993e-05
1.34422e-07
1.32065e-05
1.32234e-07
1.32134e-05
1.25293e-07
1.18651e-07
1.32207e-05
1.38833e-05
4.17025e-08
1.38728e-05
-3.29612e-08
1.38673e-05
-1.78631e-08
1.38674e-05
5.2187e-08
1.38737e-05
1.05972e-07
1.38789e-05
1.01245e-07
1.38726e-05
6.76144e-08
1.38612e-05
4.18873e-08
1.38485e-05
2.15771e-08
1.38338e-05
5.88626e-09
1.3823e-05
2.12137e-08
1.38183e-05
5.91838e-08
1.38166e-05
8.77496e-08
1.38165e-05
1.02553e-07
1.38204e-05
1.12029e-07
1.38274e-05
1.22881e-07
1.3835e-05
1.26838e-07
1.3842e-05
1.25184e-07
1.38488e-05
1.18512e-07
1.12008e-07
1.38555e-05
1.45465e-05
3.89151e-08
1.45368e-05
-2.32703e-08
1.45309e-05
-1.19721e-08
1.45302e-05
5.28981e-08
1.45352e-05
1.00963e-07
1.45403e-05
9.6078e-08
1.45351e-05
7.28459e-08
1.45239e-05
5.30901e-08
1.45116e-05
3.39253e-08
1.44986e-05
1.8864e-08
1.44892e-05
3.06158e-08
1.4485e-05
6.33449e-08
1.44836e-05
8.91186e-08
1.44838e-05
1.02409e-07
1.44872e-05
1.0865e-07
1.44936e-05
1.16447e-07
1.4501e-05
1.19422e-07
1.4508e-05
1.18173e-07
1.45148e-05
1.11776e-07
1.05788e-07
1.4521e-05
1.52414e-05
3.64453e-08
1.52327e-05
-1.45825e-08
1.52263e-05
-5.56141e-09
1.52246e-05
5.45823e-08
1.52279e-05
9.76085e-08
1.52328e-05
9.11633e-08
1.52294e-05
7.6333e-08
1.52188e-05
6.35995e-08
1.52068e-05
4.59555e-08
1.51949e-05
3.07867e-08
1.51869e-05
3.85743e-08
1.51836e-05
6.67234e-08
1.51827e-05
8.99304e-08
1.51831e-05
1.02004e-07
1.5186e-05
1.0576e-07
1.51918e-05
1.10681e-07
1.5199e-05
1.12237e-07
1.52059e-05
1.11244e-07
1.52125e-05
1.05205e-07
9.9566e-08
1.52187e-05
1.59696e-05
3.42253e-08
1.59612e-05
-6.21033e-09
1.59545e-05
1.16193e-09
1.59522e-05
5.68571e-08
1.59539e-05
9.58997e-08
1.5958e-05
8.70144e-08
1.59566e-05
7.77335e-08
1.59475e-05
7.26938e-08
1.59359e-05
5.76299e-08
1.59246e-05
4.2073e-08
1.59176e-05
4.55147e-08
1.59153e-05
6.90684e-08
1.59152e-05
9.00139e-08
1.5916e-05
1.01253e-07
1.59185e-05
1.03178e-07
1.59236e-05
1.05668e-07
1.59304e-05
1.05379e-07
1.59372e-05
1.04426e-07
1.59436e-05
9.885e-08
9.32845e-08
1.59499e-05
1.67326e-05
3.2231e-08
1.67231e-05
3.31358e-09
1.67165e-05
7.75911e-09
1.67148e-05
5.85061e-08
1.67152e-05
9.55657e-08
1.67179e-05
8.43176e-08
1.67183e-05
7.72627e-08
1.67114e-05
7.96357e-08
1.67003e-05
6.86756e-08
1.66895e-05
5.28855e-08
1.66831e-05
5.1978e-08
1.66816e-05
7.05341e-08
1.66825e-05
8.91415e-08
1.66838e-05
9.99395e-08
1.66863e-05
1.00703e-07
1.66906e-05
1.01317e-07
1.66969e-05
9.91226e-08
1.67036e-05
9.77261e-08
1.67098e-05
9.26322e-08
8.71677e-08
1.67159e-05
1.75322e-05
3.03911e-08
1.75237e-05
1.18621e-08
1.75162e-05
1.51766e-08
1.75146e-05
6.01608e-08
1.75138e-05
9.62967e-08
1.75145e-05
8.36653e-08
1.7516e-05
7.5774e-08
1.75117e-05
8.38974e-08
1.75019e-05
7.84767e-08
1.74915e-05
6.33494e-08
1.74853e-05
5.81885e-08
1.74842e-05
7.16301e-08
1.7486e-05
8.73315e-08
1.74881e-05
9.78049e-08
1.74907e-05
9.81276e-08
1.74947e-05
9.73251e-08
1.75001e-05
9.36997e-08
1.75066e-05
9.12104e-08
1.75127e-05
8.65222e-08
8.13206e-08
1.75186e-05
1.837e-05
2.87405e-08
1.83619e-05
1.99171e-08
1.83544e-05
2.27002e-08
1.83532e-05
6.13516e-08
1.8352e-05
9.74877e-08
1.83504e-05
8.52974e-08
1.83516e-05
7.46211e-08
1.83499e-05
8.55364e-08
1.83422e-05
8.62409e-08
1.83322e-05
7.32846e-08
1.83261e-05
6.43336e-08
1.8325e-05
7.26901e-08
1.83274e-05
8.49625e-08
1.83304e-05
9.47492e-08
1.83334e-05
9.51448e-08
1.83372e-05
9.35119e-08
1.83421e-05
8.88577e-08
1.8348e-05
8.52595e-08
1.83541e-05
8.04225e-08
7.58087e-08
1.83596e-05
1.92478e-05
2.73224e-08
1.92405e-05
2.7208e-08
1.92328e-05
3.03858e-08
1.9232e-05
6.21771e-08
1.92312e-05
9.83351e-08
1.92277e-05
8.8748e-08
1.92274e-05
7.494e-08
1.92277e-05