/*--------------------------------*- C++ -*----------------------------------*\
| =========                 |                                                 |
| \\      /  F ield         | OpenFOAM: The Open Source CFD Toolbox           |
|  \\    /   O peration     | Version:  3.0.1                                 |
|   \\  /    A nd           | Web:      www.OpenFOAM.org                      |
|    \\/     M anipulation  |                                                 |
\*---------------------------------------------------------------------------*/
FoamFile
{
    version     2.0;
    format      ascii;
    class       volVectorField;
    location    "4.7";
    object      U;
}
// * * * * * * * * * * * * * * * * * * * * * * * * * * * * * * * * * * * * * //

dimensions      [0 1 -1 0 0 0 0];

internalField   nonuniform List<vector> 
9600
(
(0.965154 -0.000845889 0)
(0.987634 -0.00318602 0)
(0.987695 -0.00231694 0)
(1.01557 -0.0112274 0)
(0.989361 0.0325507 0)
(1.03645 -0.00607659 0)
(0.902918 0.0144307 0)
(1.00902 -0.0126388 0)
(0.919991 -0.0250008 0)
(0.981965 -0.0188662 0)
(1.00185 -0.00966685 0)
(1.03746 -0.0230522 0)
(0.981798 0.0292592 0)
(1.10921 -0.0139248 0)
(0.929997 0.0362957 0)
(1.13507 0.00618317 0)
(0.885996 0.034779 0)
(1.12272 0.0108312 0)
(0.834952 0.0245913 0)
(1.10504 0.0133826 0)
(0.969511 -0.000529275 0)
(0.986522 -0.00330735 0)
(0.989642 -0.00259954 0)
(1.01561 -0.0111562 0)
(0.990576 0.032114 0)
(1.03257 -0.0049887 0)
(0.91457 0.0145895 0)
(0.992431 -0.0127331 0)
(0.932095 -0.0246886 0)
(0.970578 -0.0200315 0)
(1.00173 -0.010849 0)
(1.02769 -0.0224842 0)
(0.988695 0.0277469 0)
(1.09183 -0.0121847 0)
(0.948161 0.0350481 0)
(1.09885 0.00828848 0)
(0.930742 0.0346891 0)
(1.05323 0.0122513 0)
(0.92637 0.0265359 0)
(0.987096 0.0127912 0)
(0.97695 -0.000250472 0)
(0.984665 -0.00344562 0)
(0.992391 -0.00287714 0)
(1.01553 -0.0110989 0)
(0.993046 0.0318057 0)
(1.02926 -0.00415253 0)
(0.931176 0.0147993 0)
(0.983 -0.0127841 0)
(0.94782 -0.0245009 0)
(0.961672 -0.0209569 0)
(1.0006 -0.011699 0)
(1.01838 -0.0221697 0)
(0.998185 0.0261137 0)
(1.07288 -0.0111446 0)
(0.975275 0.0340545 0)
(1.06539 0.00914437 0)
(0.975259 0.0346624 0)
(1.02023 0.0133226 0)
(0.977298 0.0265963 0)
(0.984383 0.0138078 0)
(0.985538 -2.39167e-05 0)
(0.983151 -0.00353008 0)
(0.994867 -0.00315482 0)
(1.0147 -0.0110571 0)
(0.996917 0.0316548 0)
(1.02637 -0.0034627 0)
(0.948751 0.0151475 0)
(0.979607 -0.0128321 0)
(0.95904 -0.0242905 0)
(0.957531 -0.0216113 0)
(0.997473 -0.0125544 0)
(1.0122 -0.0221413 0)
(1.00583 0.0249669 0)
(1.05728 -0.010582 0)
(0.998059 0.0339342 0)
(1.04622 0.00935484 0)
(1.00201 0.0354151 0)
(1.01685 0.0136641 0)
(0.998993 0.026677 0)
(1.00416 0.0146094 0)
(0.993213 0.000163979 0)
(0.983281 -0.00356581 0)
(0.996728 -0.00344594 0)
(1.01215 -0.0110304 0)
(1.00146 0.0314879 0)
(1.0236 -0.00287409 0)
(0.964254 0.015507 0)
(0.982373 -0.012776 0)
(0.966779 -0.0240196 0)
(0.957641 -0.0220852 0)
(0.993607 -0.0134674 0)
(1.00787 -0.0221916 0)
(1.00941 0.0239421 0)
(1.04807 -0.0100531 0)
(1.01062 0.033783 0)
(1.03814 0.00991663 0)
(1.01474 0.0356822 0)
(1.02182 0.0143341 0)
(1.011 0.0266445 0)
(1.01675 0.0155214 0)
(0.998597 0.000307975 0)
(0.985428 -0.00356609 0)
(0.998259 -0.00371162 0)
(1.00718 -0.011024 0)
(1.00544 0.0312744 0)
(1.02011 -0.00236935 0)
(0.97706 0.0157842 0)
(0.988563 -0.0126084 0)
(0.972628 -0.0236911 0)
(0.959785 -0.0224333 0)
(0.990166 -0.0143274 0)
(1.00338 -0.0223432 0)
(1.00992 0.0229021 0)
(1.04289 -0.00967604 0)
(1.01609 0.0334398 0)
(1.03485 0.010488 0)
(1.02126 0.0352051 0)
(1.02673 0.0151761 0)
(1.0197 0.0259899 0)
(1.02398 0.0163985 0)
(1.00147 0.00040577 0)
(0.988799 -0.00354563 0)
(0.999749 -0.00390339 0)
(0.999974 -0.0110298 0)
(1.0079 0.031034 0)
(1.01562 -0.00194125 0)
(0.987678 0.0159276 0)
(0.996224 -0.0123339 0)
(0.978213 -0.0232855 0)
(0.962914 -0.0226513 0)
(0.987648 -0.0151015 0)
(0.998091 -0.0225594 0)
(1.00895 0.0217701 0)
(1.03876 -0.00938193 0)
(1.01866 0.032972 0)
(1.03391 0.0110169 0)
(1.02616 0.0344951 0)
(1.03101 0.0160546 0)
(1.02655 0.0250968 0)
(1.02909 0.0174542 0)
(1.0025 0.000464804 0)
(0.992188 -0.00352075 0)
(1.00114 -0.00398949 0)
(0.991727 -0.0110367 0)
(1.00878 0.0307561 0)
(1.0107 -0.00159532 0)
(0.996847 0.0159048 0)
(1.00398 -0.0119737 0)
(0.983969 -0.022801 0)
(0.966831 -0.0227371 0)
(0.986186 -0.0157563 0)
(0.992185 -0.0228019 0)
(1.00755 0.0205282 0)
(1.03401 -0.00913072 0)
(1.02049 0.0323381 0)
(1.03399 0.0115605 0)
(1.03072 0.0336585 0)
(1.03466 0.0169637 0)
(1.03166 0.0242429 0)
(1.03273 0.0186487 0)
(1.00263 0.000496971 0)
(0.994784 -0.00350121 0)
(1.00213 -0.00396586 0)
(0.984032 -0.011041 0)
(1.0088 0.030423 0)
(1.00655 -0.00133617 0)
(1.00483 0.0157046 0)
(1.01091 -0.0115414 0)
(0.989652 -0.0222522 0)
(0.971455 -0.0226939 0)
(0.98575 -0.0162495 0)
(0.986119 -0.0230415 0)
(1.00592 0.019195 0)
(1.02817 -0.00892525 0)
(1.02174 0.031477 0)
(1.03386 0.0121171 0)
(1.03434 0.0326319 0)
(1.03718 0.0179434 0)
(1.03476 0.0234033 0)
(1.03464 0.019865 0)
(1.00252 0.00051317 0)
(0.996404 -0.00348809 0)
(1.00254 -0.00384873 0)
(0.978184 -0.0110452 0)
(1.00873 0.0300236 0)
(1.00426 -0.00115537 0)
(1.01128 0.0153413 0)
(1.01636 -0.0110522 0)
(0.994761 -0.0216691 0)
(0.976365 -0.0225334 0)
(0.986149 -0.0165475 0)
(0.98043 -0.0232429 0)
(1.00374 0.0177876 0)
(1.02122 -0.00875459 0)
(1.02154 0.030372 0)
(1.03242 0.012677 0)
(1.03585 0.0314317 0)
(1.03785 0.0190069 0)
(1.03558 0.0225971 0)
(1.03459 0.0210476 0)
(1.00249 0.00052067 0)
(0.99727 -0.0034768 0)
(1.00237 -0.00366401 0)
(0.974796 -0.0110561 0)
(1.00876 0.0295516 0)
(1.00418 -0.00103133 0)
(1.01564 0.0148574 0)
(1.01996 -0.0105196 0)
(0.998893 -0.0210821 0)
(0.98088 -0.0222729 0)
(0.987048 -0.0166445 0)
(0.975752 -0.0233579 0)
(1.0005 0.0163342 0)
(1.01346 -0.00857467 0)
(1.01896 0.0290269 0)
(1.02893 0.0132436 0)
(1.03444 0.030109 0)
(1.03616 0.0201293 0)
(1.03411 0.0218609 0)
(1.03262 0.022128 0)
(1.00258 0.000523601 0)
(0.997705 -0.00346243 0)
(1.00184 -0.00344071 0)
(0.973794 -0.0110728 0)
(1.00849 0.0290083 0)
(1.00578 -0.00093979 0)
(1.01761 0.014313 0)
(1.02166 -0.0099626 0)
(1.00194 -0.0205131 0)
(0.984402 -0.0219284 0)
(0.988066 -0.0165768 0)
(0.972637 -0.0233424 0)
(0.99604 0.0148961 0)
(1.00558 -0.00834528 0)
(1.01373 0.0274809 0)
(1.02332 0.0138057 0)
(1.0301 0.0287004 0)
(1.03212 0.021228 0)
(1.03072 0.0212228 0)
(1.02914 0.0230138 0)
(1.00275 0.000523365 0)
(0.997968 -0.00344051 0)
(1.00115 -0.00320602 0)
(0.974614 -0.0110826 0)
(1.00746 0.0283993 0)
(1.00807 -0.00085735 0)
(1.01748 0.0137547 0)
(1.02178 -0.00940811 0)
(1.00406 -0.0199733 0)
(0.986707 -0.0215109 0)
(0.988896 -0.0164067 0)
(0.971265 -0.0231586 0)
(0.990856 0.0135232 0)
(0.998462 -0.00803469 0)
(1.00667 0.0258023 0)
(1.01633 0.0143752 0)
(1.02376 0.0272027 0)
(1.02639 0.0222231 0)
(1.02604 0.0206965 0)
(1.02473 0.0236295 0)
(1.00291 0.000519691 0)
(0.998202 -0.00340859 0)
(1.00053 -0.00297794 0)
(0.976463 -0.0110726 0)
(1.00558 0.0277352 0)
(1.01007 -0.000767801 0)
(1.01599 0.0132076 0)
(1.02082 -0.00887263 0)
(1.00557 -0.0194625 0)
(0.988008 -0.0210387 0)
(0.989391 -0.0161855 0)
(0.971318 -0.0227965 0)
(0.985877 0.0122404 0)
(0.992808 -0.00762087 0)
(0.99923 0.0240526 0)
(1.00909 0.0149462 0)
(1.01679 0.0256491 0)
(1.01996 0.0230518 0)
(1.02083 0.0203001 0)
(1.02001 0.023946 0)
(1.00302 0.000512786 0)
(0.998451 -0.00336875 0)
(1.00011 -0.00276489 0)
(0.97861 -0.011031 0)
(1.00319 0.0270345 0)
(1.01125 -0.000664771 0)
(1.01397 0.0126749 0)
(1.01934 -0.00836135 0)
(1.00668 -0.0189841 0)
(0.988751 -0.0205142 0)
(0.989582 -0.0159542 0)
(0.972168 -0.0222807 0)
(0.98188 0.0110522 0)
(0.98878 -0.00710092 0)
(0.992736 0.0222978 0)
(1.00259 0.015484 0)
(1.01033 0.0241285 0)
(1.01372 0.0236666 0)
(1.0157 0.0200512 0)
(1.01544 0.023962 0)
(1.00306 0.000503286 0)
(0.998697 -0.00332563 0)
(0.999903 -0.00256716 0)
(0.980593 -0.0109481 0)
(1.00074 0.0263136 0)
(1.01155 -0.000550505 0)
(1.012 0.0121483 0)
(1.01777 -0.00787483 0)
(1.00751 -0.0185428 0)
(0.989321 -0.0199262 0)
(0.98961 -0.0157375 0)
(0.973238 -0.0216345 0)
(0.979081 0.00993464 0)
(0.986047 -0.0064714 0)
(0.987715 0.0205852 0)
(0.997189 0.0159844 0)
(1.00491 0.0226933 0)
(1.00815 0.0240602 0)
(1.01102 0.0199596 0)
(1.01131 0.0237029 0)
(1.00304 0.000491867 0)
(0.998909 -0.00328306 0)
(0.999857 -0.00238082 0)
(0.982242 -0.0108207 0)
(0.998529 0.0255828 0)
(1.01122 -0.000427604 0)
(1.01031 0.0116176 0)
(1.01634 -0.0074104 0)
(1.00806 -0.0181353 0)
(0.989878 -0.0192808 0)
(0.989622 -0.0155299 0)
(0.974234 -0.0208857 0)
(0.977215 0.00887964 0)
(0.984113 -0.00574914 0)
(0.983996 0.0189309 0)
(0.992773 0.0164528 0)
(1.00049 0.0213626 0)
(1.00338 0.024248 0)
(1.00693 0.0200042 0)
(1.00775 0.0232263 0)
(1.00299 0.00047939 0)
(0.999072 -0.00324271 0)
(0.999872 -0.00220318 0)
(0.983573 -0.010651 0)
(0.996697 0.0248484 0)
(1.0106 -0.000297431 0)
(1.00895 0.011071 0)
(1.01509 -0.00696036 0)
(1.00837 -0.0177625 0)
(0.990405 -0.018588 0)
(0.989691 -0.0153161 0)
(0.975123 -0.0200662 0)
(0.975923 0.0078974 0)
(0.982631 -0.00497706 0)
(0.981211 0.0173704 0)
(0.989094 0.0168593 0)
(0.996888 0.0201691 0)
(0.999423 0.0242359 0)
(1.00348 0.020136 0)
(1.00484 0.0225866 0)
(1.00289 0.000467128 0)
(0.999191 -0.00320715 0)
(0.999871 -0.00202991 0)
(0.984661 -0.0104438 0)
(0.995289 0.024111 0)
(1.00994 -0.000161354 0)
(1.00789 0.0105019 0)
(1.01403 -0.00651798 0)
(1.00849 -0.0174218 0)
(0.990844 -0.0178571 0)
(0.989812 -0.0150915 0)
(0.97597 -0.019189 0)
(0.975009 0.00698296 0)
(0.981486 -0.00415859 0)
(0.979161 0.0159355 0)
(0.986062 0.0171741 0)
(0.99403 0.0191321 0)
(0.996284 0.0240224 0)
(1.00069 0.0203048 0)
(1.0026 0.0218393 0)
(1.00278 0.000456436 0)
(0.999281 -0.00317798 0)
(0.999821 -0.00185744 0)
(0.98557 -0.0102049 0)
(0.994293 0.0233663 0)
(1.00935 -1.79915e-05 0)
(1.00709 0.00990927 0)
(1.0131 -0.00607564 0)
(1.00846 -0.0171087 0)
(0.991176 -0.0170938 0)
(0.989941 -0.014858 0)
(0.976819 -0.0182716 0)
(0.974435 0.00614185 0)
(0.980689 -0.00332809 0)
(0.977812 0.0146116 0)
(0.983725 0.0174043 0)
(0.991909 0.0182346 0)
(0.993985 0.0236014 0)
(0.998553 0.0204685 0)
(1.00099 0.0210526 0)
(1.00264 0.000447919 0)
(0.999354 -0.00315451 0)
(0.99972 -0.0016839 0)
(0.986351 -0.0099409 0)
(0.993653 0.0226095 0)
(1.00887 0.000136365 0)
(1.0065 0.00929277 0)
(1.01228 -0.00562479 0)
(1.00834 -0.0168144 0)
(0.991426 -0.0163127 0)
(0.990045 -0.0146027 0)
(0.977677 -0.0173357 0)
(0.974193 0.00538061 0)
(0.980243 -0.00251705 0)
(0.977145 0.0134102 0)
(0.982116 0.0175428 0)
(0.990492 0.017461 0)
(0.992487 0.0230146 0)
(0.997017 0.0206184 0)
(0.999938 0.0202798 0)
(1.00249 0.000441887 0)
(0.999415 -0.00313634 0)
(0.999581 -0.00150781 0)
(0.987041 -0.00965806 0)
(0.993288 0.0218387 0)
(1.00847 0.000301625 0)
(1.00606 0.00865409 0)
(1.01153 -0.00516481 0)
(1.00815 -0.016527 0)
(0.991627 -0.0155255 0)
(0.990109 -0.0143146 0)
(0.978536 -0.0164103 0)
(0.974243 0.00471394 0)
(0.980106 -0.00174782 0)
(0.977062 0.0123349 0)
(0.981169 0.0175746 0)
(0.989673 0.0168245 0)
(0.991672 0.0223193 0)
(0.995972 0.020745 0)
(0.999294 0.0195663 0)
(1.00234 0.000439489 0)
(0.999463 -0.00312428 0)
(0.999418 -0.00132939 0)
(0.987665 -0.00935924 0)
(0.993116 0.0210528 0)
(1.00813 0.000478748 0)
(1.00572 0.00799697 0)
(1.01083 -0.00469261 0)
(1.00792 -0.0162447 0)
(0.991806 -0.0147284 0)
(0.990141 -0.0139932 0)
(0.979399 -0.0155253 0)
(0.974519 0.00414701 0)
(0.980204 -0.00103974 0)
(0.977419 0.011347 0)
(0.98075 0.0175294 0)
(0.989297 0.0162992 0)
(0.991375 0.0215147 0)
(0.995292 0.0208264 0)
(0.998921 0.018947 0)
(1.0022 0.000440738 0)
(0.999497 -0.0031184 0)
(0.999247 -0.00114763 0)
(0.988242 -0.00904902 0)
(0.993073 0.0202487 0)
(1.00782 0.000671049 0)
(1.00545 0.0073214 0)
(1.01014 -0.00420935 0)
(1.00767 -0.0159575 0)
(0.991978 -0.0139364 0)
(0.990152 -0.0136162 0)
(0.980268 -0.0146984 0)
(0.974958 0.00366952 0)
(0.980457 -0.000379077 0)
(0.978078 0.0104231 0)
(0.980708 0.0174071 0)
(0.989201 0.0158575 0)
(0.991439 0.0206055 0)
(0.994868 0.0208353 0)
(0.998691 0.0184378 0)
(1.00207 0.000445679 0)
(0.999516 -0.00311868 0)
(0.999081 -0.000961766 0)
(0.988786 -0.00872927 0)
(0.993117 0.0194252 0)
(1.00752 0.000880098 0)
(1.00522 0.00662818 0)
(1.00945 -0.00371866 0)
(1.00741 -0.0156572 0)
(0.992152 -0.0131706 0)
(0.990153 -0.0131729 0)
(0.981144 -0.0139375 0)
(0.975516 0.00327262 0)
(0.980799 0.000224355 0)
(0.978925 0.00957087 0)
(0.980917 0.0171774 0)
(0.989259 0.0155221 0)
(0.991729 0.0196204 0)
(0.994614 0.0207325 0)
(0.998503 0.0180641 0)
(1.00197 0.000454932 0)
(0.999524 -0.00312368 0)
(0.998926 -0.000775222 0)
(0.989307 -0.00839808 0)
(0.993216 0.018581 0)
(1.00722 0.00110882 0)
(1.00503 0.00592672 0)
(1.00876 -0.00322601 0)
(1.00714 -0.0153355 0)
(0.992335 -0.0124497 0)
(0.990153 -0.0126568 0)
(0.982023 -0.0132457 0)
(0.976162 0.00293775 0)
(0.981183 0.000787017 0)
(0.979878 0.00878602 0)
(0.981285 0.0168652 0)
(0.989379 0.0152814 0)
(0.992141 0.0185908 0)
(0.994486 0.0205081 0)
(0.998293 0.0178655 0)
(1.00189 0.000467741 0)
(0.999523 -0.00313204 0)
(0.998786 -0.000589814 0)
(0.989813 -0.00805123 0)
(0.993354 0.0177158 0)
(1.0069 0.00135374 0)
(1.00486 0.00521977 0)
(1.00805 -0.00273187 0)
(1.00687 -0.0149935 0)
(0.99253 -0.0117728 0)
(0.990155 -0.0120569 0)
(0.9829 -0.012626 0)
(0.976878 0.00264542 0)
(0.981575 0.00132346 0)
(0.980882 0.00804158 0)
(0.981757 0.0164755 0)
(0.989502 0.015131 0)
(0.992608 0.0175667 0)
(0.994464 0.0201267 0)
(0.998032 0.0178016 0)
(1.00181 0.000484459 0)
(0.999518 -0.00314562 0)
(0.99866 -0.000403164 0)
(0.990309 -0.00769608 0)
(0.99352 0.0168285 0)
(1.00656 0.0016148 0)
(1.00471 0.00451255 0)
(1.00735 -0.00225189 0)
(1.0066 -0.0146129 0)
(0.992743 -0.0111528 0)
(0.990159 -0.011379 0)
(0.983766 -0.0120533 0)
(0.977655 0.00237828 0)
(0.981957 0.0018491 0)
(0.981901 0.0073484 0)
(0.982312 0.0159877 0)
(0.989602 0.0150565 0)
(0.993076 0.0165939 0)
(0.994542 0.01955 0)
(0.997721 0.0178025 0)
(1.00175 0.000504903 0)
(0.999515 -0.00316115 0)
(0.998544 -0.000224815 0)
(0.990798 -0.00732842 0)
(0.993709 0.0159192 0)
(1.00619 0.00189488 0)
(1.00458 0.00381556 0)
(1.00666 -0.00179619 0)
(1.00632 -0.0141786 0)
(0.992978 -0.0106082 0)
(0.990166 -0.0106262 0)
(0.984613 -0.0115124 0)
(0.978489 0.00211511 0)
(0.982325 0.00238379 0)
(0.982908 0.00671264 0)
(0.982941 0.0153902 0)
(0.989676 0.0150304 0)
(0.993512 0.0157261 0)
(0.994722 0.0187828 0)
(0.99739 0.0177958 0)
(1.00168 0.000528706 0)
(0.999517 -0.00317804 0)
(0.998438 -5.4884e-05 0)
(0.99128 -0.00693935 0)
(0.993919 0.0149908 0)
(1.00582 0.00218741 0)
(1.00446 0.00313445 0)
(1.00598 -0.00136577 0)
(1.00603 -0.0136889 0)
(0.99324 -0.0101348 0)
(0.990177 -0.00981361 0)
(0.985431 -0.0109867 0)
(0.979379 0.00184155 0)
(0.982682 0.00290644 0)
(0.983882 0.00616482 0)
(0.983651 0.0146846 0)
(0.989741 0.0150244 0)
(0.993888 0.0150077 0)
(0.994994 0.0178679 0)
(0.997085 0.0177111 0)
(1.00162 0.000554811 0)
(0.999526 -0.00319448 0)
(0.99834 0.000107217 0)
(0.991753 -0.00653101 0)
(0.994148 0.0140478 0)
(1.00543 0.00248701 0)
(1.00435 0.0024704 0)
(1.00533 -0.000979378 0)
(1.00573 -0.0131241 0)
(0.99353 -0.00974561 0)
(0.990195 -0.00896462 0)
(0.986212 -0.0104388 0)
(0.980321 0.00154603 0)
(0.983038 0.00342723 0)
(0.98481 0.00573533 0)
(0.984439 0.0138845 0)
(0.989818 0.0149787 0)
(0.994187 0.0144488 0)
(0.995344 0.0168596 0)
(0.996852 0.017472 0)
(1.00155 0.000583373 0)
(0.999542 -0.00320726 0)
(0.998252 0.000250282 0)
(0.992215 -0.00610037 0)
(0.994394 0.0130946 0)
(1.00504 0.00278557 0)
(1.00425 0.00184222 0)
(1.00471 -0.00064329 0)
(1.00542 -0.0124922 0)
(0.993848 -0.00942307 0)
(0.990229 -0.00810624 0)
(0.986947 -0.00985359 0)
(0.981315 0.00122063 0)
(0.983404 0.0039211 0)
(0.985673 0.00543928 0)
(0.985298 0.0130029 0)
(0.989935 0.0148383 0)
(0.994402 0.0140419 0)
(0.995738 0.015841 0)
(0.996734 0.0170295 0)
(1.00148 0.000613244 0)
(0.999565 -0.00321678 0)
(0.998174 0.000377651 0)
(0.992663 -0.00565199 0)
(0.994658 0.0121344 0)
(1.00464 0.00307346 0)
(1.00414 0.00126129 0)
(1.00412 -0.000369174 0)
(1.00508 -0.0117856 0)
(0.994195 -0.00915472 0)
(0.990284 -0.00726275 0)
(0.987631 -0.00921686 0)
(0.982351 0.000866838 0)
(0.983798 0.00434131 0)
(0.986461 0.00529159 0)
(0.986208 0.0120753 0)
(0.990118 0.014581 0)
(0.994541 0.0137564 0)
(0.996137 0.0149132 0)
(0.996746 0.0164044 0)
(1.00141 0.000644283 0)
(0.999594 -0.00322005 0)
(0.99811 0.0004855 0)
(0.993096 -0.00518398 0)
(0.994937 0.0111705 0)
(1.00424 0.00335067 0)
(1.00404 0.000732553 0)
(1.00357 -0.000158773 0)
(1.00473 -0.0110134 0)
(0.994564 -0.0089252 0)
(0.99037 -0.0064588 0)
(0.988258 -0.00850037 0)
(0.983421 0.000491938 0)
(0.984233 0.00469134 0)
(0.987169 0.00527947 0)
(0.987146 0.0111539 0)
(0.990383 0.0142062 0)
(0.994624 0.0135384 0)
(0.996506 0.0141155 0)
(0.996881 0.0156122 0)
(1.00133 0.000676391 0)
(0.999628 -0.00321308 0)
(0.998061 0.000565782 0)
(0.99351 -0.00469866 0)
(0.995231 0.0102126 0)
(1.00383 0.00360809 0)
(1.00393 0.000277892 0)
(1.00306 -2.64086e-05 0)
(1.00435 -0.0101849 0)
(0.994951 -0.00870905 0)
(0.990497 -0.0057099 0)
(0.988826 -0.00771992 0)
(0.984511 0.000128955 0)
(0.984726 0.00494451 0)
(0.987797 0.00537964 0)
(0.988085 0.0102903 0)
(0.990739 0.0137073 0)
(0.994673 0.0133341 0)
(0.996809 0.0134711 0)
(0.997108 0.0147378 0)
(1.00126 0.000706427 0)
(0.999666 -0.00319214 0)
(0.998028 0.000618713 0)
(0.993906 -0.0041985 0)
(0.995538 0.00926778 0)
(1.00344 0.00383062 0)
(1.00381 -0.000106817 0)
(1.00259 3.146e-05 0)
(1.00397 -0.0093114 0)
(0.995349 -0.00848924 0)
(0.990672 -0.0050457 0)
(0.989337 -0.0068847 0)
(0.985606 -0.000178657 0)
(0.985286 0.00508279 0)
(0.988355 0.00556165 0)
(0.989 0.00952643 0)
(0.991183 0.0130979 0)
(0.994723 0.0131017 0)
(0.997038 0.0129652 0)
(0.997387 0.013891 0)
(1.00119 0.00073592 0)
(0.999708 -0.00315911 0)
(0.998015 0.000648999 0)
(0.994281 -0.00368987 0)
(0.995855 0.00834309 0)
(1.00305 0.00401178 0)
(1.00368 -0.000412695 0)
(1.00217 2.80848e-05 0)
(1.00357 -0.00841962 0)
(0.995747 -0.00824305 0)
(0.990903 -0.00447519 0)
(0.989799 -0.00600142 0)
(0.986689 -0.000424542 0)
(0.985917 0.00509924 0)
(0.988857 0.00579226 0)
(0.989866 0.00888201 0)
(0.991705 0.0123971 0)
(0.994801 0.0128089 0)
(0.997198 0.0125536 0)
(0.997676 0.0131352 0)
(1.00111 0.000762005 0)
(0.999752 -0.00311126 0)
(0.998021 0.000658113 0)
(0.994634 -0.00317798 0)
(0.996181 0.00744868 0)
(1.00268 0.00414127 0)
(1.00354 -0.000620917 0)
(1.0018 -3.85766e-05 0)
(1.00316 -0.00753196 0)
(0.996139 -0.00794792 0)
(0.991194 -0.00399226 0)
(0.990217 -0.00510778 0)
(0.987741 -0.000610312 0)
(0.986623 0.00499919 0)
(0.989323 0.00601726 0)
(0.990663 0.00836884 0)
(0.992286 0.0116559 0)
(0.994932 0.0124499 0)
(0.997312 0.0122015 0)
(0.997937 0.0125029 0)
(1.00104 0.00078482 0)
(0.999797 -0.00304484 0)
(0.998049 0.000643602 0)
(0.994965 -0.00267329 0)
(0.99651 0.00659596 0)
(1.00232 0.00421091 0)
(1.00337 -0.000732771 0)
(1.00148 -0.000157919 0)
(1.00277 -0.00666874 0)
(0.996516 -0.00759427 0)
(0.991544 -0.00360032 0)
(0.990602 -0.00422498 0)
(0.988746 -0.000689166 0)
(0.987399 0.00479915 0)
(0.989776 0.00621467 0)
(0.991384 0.007986 0)
(0.992906 0.0109276 0)
(0.995126 0.0120292 0)
(0.997401 0.0118597 0)
(0.998152 0.0119769 0)
(1.00098 0.000803554 0)
(0.999843 -0.00296246 0)
(0.998098 0.000611294 0)
(0.995273 -0.00218146 0)
(0.99684 0.00579382 0)
(1.00198 0.00422178 0)
(1.00319 -0.000758049 0)
(1.00121 -0.000305731 0)
(1.00238 -0.00584962 0)
(0.99687 -0.00718432 0)
(0.991952 -0.00327524 0)
(0.990968 -0.00338086 0)
(0.98969 -0.000648558 0)
(0.988236 0.00453305 0)
(0.990238 0.00635792 0)
(0.992027 0.00771362 0)
(0.993541 0.010229 0)
(0.995385 0.0115365 0)
(0.997491 0.0115001 0)
(0.998329 0.0115182 0)
(1.00091 0.000815721 0)
(0.999889 -0.00285805 0)
(0.998169 0.000555307 0)
(0.99556 -0.00170329 0)
(0.997168 0.00504998 0)
(1.00167 0.00416841 0)
(1.00299 -0.00070666 0)
(1.00097 -0.000465632 0)
(1.00202 -0.00509269 0)
(0.997198 -0.00670882 0)
(0.992412 -0.00300195 0)
(0.99133 -0.00259488 0)
(0.990565 -0.000518696 0)
(0.989116 0.00423148 0)
(0.990727 0.00641253 0)
(0.992597 0.00752774 0)
(0.994167 0.00958458 0)
(0.995706 0.0109918 0)
(0.997602 0.0111321 0)
(0.99848 0.011084 0)
(1.00085 0.000821502 0)
(0.999932 -0.00272748 0)
(0.998261 0.000472388 0)
(0.995827 -0.00125261 0)
(0.99749 0.00437489 0)
(1.0014 0.00404252 0)
(1.00278 -0.00058732 0)
(1.00078 -0.000618902 0)
(1.00168 -0.00440972 0)
(0.997498 -0.00618042 0)
(0.992916 -0.00275969 0)
(0.991698 -0.00187884 0)
(0.991366 -0.000296075 0)
(0.990023 0.00392764 0)
(0.991259 0.00637165 0)
(0.993107 0.00739375 0)
(0.994764 0.00901652 0)
(0.996084 0.0104167 0)
(0.99774 0.01075 0)
(0.998616 0.0106742 0)
(1.00079 0.00081789 0)
(0.999972 -0.00257106 0)
(0.998371 0.000364637 0)
(0.996075 -0.000823712 0)
(0.997798 0.00377496 0)
(1.00115 0.00383926 0)
(1.00255 -0.000422808 0)
(1.0006 -0.000727856 0)
(1.00138 -0.00379766 0)
(0.997771 -0.00561865 0)
(0.993456 -0.00254337 0)
(0.992084 -0.00124626 0)
(0.992093 1.07188e-05 0)
(0.990931 0.00365388 0)
(0.99184 0.0062345 0)
(0.993578 0.00726581 0)
(0.995318 0.00852943 0)
(0.996506 0.00982031 0)
(0.997923 0.0103272 0)
(0.998742 0.0103033 0)
(1.00073 0.000805362 0)
(1.00001 -0.0023841 0)
(0.998501 0.00023293 0)
(0.996306 -0.000428227 0)
(0.998086 0.00326379 0)
(1.00095 0.00358123 0)
(1.00231 -0.000228174 0)
(1.00046 -0.000777142 0)
(1.00112 -0.00326287 0)
(0.998013 -0.00503282 0)
(0.994018 -0.00233159 0)
(0.9925 -0.000696331 0)
(0.992755 0.000366516 0)
(0.991821 0.00342885 0)
(0.992468 0.00602197 0)
(0.994033 0.00712058 0)
(0.995825 0.00811975 0)
(0.996953 0.00923901 0)
(0.998165 0.00984902 0)
(0.998873 0.00993852 0)
(1.00068 0.000785539 0)
(1.00003 -0.00217395 0)
(0.998644 8.82843e-05 0)
(0.996525 -6.61511e-05 0)
(0.998352 0.00284877 0)
(1.00078 0.00329416 0)
(1.00208 -3.24697e-05 0)
(1.00032 -0.000766217 0)
(1.00089 -0.00277856 0)
(0.998235 -0.00443475 0)
(0.994596 -0.00210631 0)
(0.992948 -0.000239616 0)
(0.993358 0.000733923 0)
(0.992672 0.00325542 0)
(0.993132 0.00576178 0)
(0.994488 0.0069463 0)
(0.996288 0.00776794 0)
(0.997398 0.00870386 0)
(0.998457 0.00932712 0)
(0.999036 0.00954148 0)
(1.00063 0.000755226 0)
(1.00004 -0.00194281 0)
(0.998801 -5.25802e-05 0)
(0.996737 0.000238057 0)
(0.998587 0.00253699 0)
(1.00064 0.00298576 0)
(1.00186 0.000142676 0)
(1.0002 -0.000697041 0)
(1.00069 -0.00233398 0)
(0.998437 -0.00383797 0)
(0.995178 -0.0018738 0)
(0.993429 0.000121298 0)
(0.993914 0.00109101 0)
(0.993473 0.00314071 0)
(0.993821 0.00547676 0)
(0.994954 0.00673525 0)
(0.996715 0.0074504 0)
(0.997825 0.00822421 0)
(0.998785 0.00881157 0)
(0.999247 0.00910497 0)
(1.00058 0.000717224 0)
(1.00005 -0.00170061 0)
(0.998965 -0.000182898 0)
(0.996946 0.000460998 0)
(0.998794 0.00231029 0)
(1.00053 0.00268386 0)
(1.00166 0.000297496 0)
(1.0001 -0.000591463 0)
(1.00053 -0.00192425 0)
(0.998624 -0.00325497 0)
(0.995754 -0.00161938 0)
(0.993943 0.00040389 0)
(0.994436 0.00140868 0)
(0.994216 0.0030801 0)
(0.994517 0.00519128 0)
(0.995436 0.00649356 0)
(0.997119 0.00715429 0)
(0.998233 0.00778868 0)
(0.999128 0.00833118 0)
(0.999497 0.00864539 0)
(1.00054 0.000675998 0)
(1.00004 -0.00146247 0)
(0.99913 -0.000290404 0)
(0.997155 0.000609995 0)
(0.998972 0.00214722 0)
(1.00044 0.00241182 0)
(1.00148 0.000432102 0)
(1.00001 -0.000464713 0)
(1.0004 -0.00153056 0)
(0.998796 -0.0026834 0)
(0.996313 -0.0013553 0)
(0.994478 0.000622553 0)
(0.994936 0.00166999 0)
(0.994903 0.00305805 0)
(0.995208 0.00491051 0)
(0.995936 0.00622846 0)
(0.997505 0.00686878 0)
(0.998621 0.00738204 0)
(0.999475 0.00787127 0)
(0.99977 0.00819436 0)
(1.0005 0.000631432 0)
(1.00002 -0.00123556 0)
(0.999291 -0.000358163 0)
(0.997366 0.000687259 0)
(0.999129 0.00202809 0)
(1.00036 0.00218762 0)
(1.00132 0.000549182 0)
(0.999935 -0.000311857 0)
(1.0003 -0.00116862 0)
(0.998954 -0.00213372 0)
(0.996846 -0.00107472 0)
(0.995032 0.000790399 0)
(0.995425 0.00188895 0)
(0.995534 0.00305637 0)
(0.995882 0.00465003 0)
(0.996454 0.00594356 0)
(0.997881 0.0065943 0)
(0.998985 0.00701316 0)
(0.999826 0.00742308 0)
(1.00006 0.00777242 0)
(1.00047 0.000587348 0)
(1 -0.00102796 0)
(0.999445 -0.000385526 0)
(0.997578 0.000712565 0)
(0.999271 0.00192772 0)
(1.0003 0.0020146 0)
(1.00118 0.00064906 0)
(0.999877 -0.000139229 0)
(1.00023 -0.000834016 0)
(0.999104 -0.00161994 0)
(0.997345 -0.000778491 0)
(0.995591 0.000932298 0)
(0.995907 0.00205565 0)
(0.996115 0.0030604 0)
(0.996531 0.00441772 0)
(0.996988 0.0056369 0)
(0.998256 0.0063098 0)
(0.99932 0.00669129 0)
(1.00018 0.00699464 0)
(1.00035 0.00735868 0)
(1.00044 0.000543804 0)
(0.99997 -0.000840794 0)
(0.999588 -0.00037931 0)
(0.99779 0.000708166 0)
(0.999403 0.00183012 0)
(1.00024 0.00187963 0)
(1.00105 0.00074984 0)
(0.999833 5.19939e-05 0)
(1.00019 -0.000525282 0)
(0.99925 -0.00115386 0)
(0.997812 -0.000475407 0)
(0.996148 0.00106653 0)
(0.996384 0.00218418 0)
(0.996652 0.00307385 0)
(0.997143 0.00421662 0)
(0.997527 0.00533572 0)
(0.99865 0.00601155 0)
(0.999636 0.00639955 0)
(1.0005 0.00660511 0)
(1.00066 0.00693273 0)
(1.00041 0.000503461 0)
(0.999938 -0.000677461 0)
(0.99972 -0.000349879 0)
(0.997998 0.000693636 0)
(0.999531 0.00172624 0)
(1.0002 0.00176765 0)
(1.00095 0.000859588 0)
(0.999802 0.000249877 0)
(1.00017 -0.000234652 0)
(0.999395 -0.000733794 0)
(0.99825 -0.000172074 0)
(0.996692 0.00120021 0)
(0.996857 0.00228234 0)
(0.997153 0.00308377 0)
(0.997717 0.00403046 0)
(0.998061 0.00504868 0)
(0.999056 0.00570208 0)
(0.999942 0.0061008 0)
(1.0008 0.00626601 0)
(1.00098 0.00651274 0)
(1.00039 0.000466445 0)
(0.999905 -0.00053461 0)
(0.999841 -0.000302229 0)
(0.998201 0.000676029 0)
(0.999654 0.00161997 0)
(1.00018 0.00167402 0)
(1.00087 0.000975313 0)
(0.999784 0.00045294 0)
(1.00017 4.33689e-05 0)
(0.999539 -0.000353028 0)
(0.99866 0.000117636 0)
(0.997222 0.00133766 0)
(0.997321 0.00235879 0)
(0.997616 0.00309755 0)
(0.998251 0.0038673 0)
(0.998584 0.00477082 0)
(0.999471 0.00538763 0)
(1.00026 0.00579015 0)
(1.00108 0.00596513 0)
(1.00129 0.00612734 0)
(1.00037 0.000432597 0)
(0.999872 -0.000409889 0)
(0.999953 -0.000242788 0)
(0.998397 0.00066871 0)
(0.999776 0.00152559 0)
(1.00018 0.00158988 0)
(1.00082 0.00108506 0)
(0.999777 0.000663096 0)
(1.00018 0.00030595 0)
(0.999684 -1.89804e-05 0)
(0.999047 0.000385106 0)
(0.997733 0.0014649 0)
(0.997781 0.00242632 0)
(0.998052 0.00310589 0)
(0.998741 0.0037327 0)
(0.999085 0.00450487 0)
(0.999888 0.00508531 0)
(1.00059 0.00547753 0)
(1.00134 0.00566378 0)
(1.00157 0.0057921 0)
(1.00036 0.000403219 0)
(0.999842 -0.000300197 0)
(1.00006 -0.000176269 0)
(0.998586 0.000675481 0)
(0.999894 0.00144416 0)
(1.0002 0.00150668 0)
(1.0008 0.0011812 0)
(0.999784 0.00087397 0)
(1.0002 0.000554641 0)
(0.999828 0.000273689 0)
(0.999414 0.000616243 0)
(0.998229 0.00157745 0)
(0.998232 0.00247874 0)
(0.998461 0.003109 0)
(0.999187 0.00361822 0)
(0.999563 0.00425904 0)
(1.00031 0.00479169 0)
(1.00092 0.00516847 0)
(1.00161 0.00534799 0)
(1.00182 0.00549472 0)
(1.00034 0.000377841 0)
(0.999814 -0.000204444 0)
(1.00016 -0.000102209 0)
(0.998768 0.000696826 0)
(1.00001 0.00138416 0)
(1.00023 0.00142332 0)
(1.00081 0.0012549 0)
(0.999807 0.00107522 0)
(1.00023 0.000797569 0)
(0.999967 0.00054004 0)
(0.999763 0.000808979 0)
(0.99871 0.00166836 0)
(0.99868 0.00251035 0)
(0.998851 0.00311561 0)
(0.999591 0.0035294 0)
(1.00001 0.00404368 0)
(1.00072 0.00449678 0)
(1.00126 0.00486425 0)
(1.00189 0.00502492 0)
(1.00206 0.00519233 0)
(1.00033 0.000356923 0)
(0.99979 -0.000113964 0)
(1.00026 -2.60882e-05 0)
(0.998945 0.000725554 0)
(1.00011 0.00135604 0)
(1.00028 0.0013519 0)
(1.00085 0.00129214 0)
(0.999852 0.00125754 0)
(1.00026 0.00103789 0)
(1.0001 0.000791457 0)
(1.00009 0.000976556 0)
(0.999179 0.00172695 0)
(0.99913 0.00251525 0)
(0.99923 0.00310407 0)
(0.999957 0.00345386 0)
(1.00041 0.00385968 0)
(1.00111 0.00421469 0)
(1.00159 0.00456433 0)
(1.00218 0.00470764 0)
(1.00231 0.00487057 0)
(1.00033 0.000334516 0)
(0.999769 -1.32132e-05 0)
(1.00035 5.13763e-05 0)
(0.99912 0.000753217 0)
(1.00021 0.00134767 0)
(1.00033 0.00129938 0)
(1.00092 0.00128855 0)
(0.999927 0.00140521 0)
(1.0003 0.00127117 0)
(1.00021 0.00103006 0)
(1.00039 0.00113751 0)
(0.999628 0.00176525 0)
(0.99958 0.0024895 0)
(0.999607 0.00306648 0)
(1.0003 0.00338518 0)
(1.00076 0.00370755 0)
(1.00148 0.00396542 0)
(1.00192 0.00427353 0)
(1.00246 0.00440921 0)
(1.00258 0.00454427 0)
(1.00032 0.000313736 0)
(0.999749 8.62578e-05 0)
(1.00044 0.000135359 0)
(0.999289 0.000773658 0)
(1.00031 0.00135743 0)
(1.00039 0.00127533 0)
(1.00102 0.0012635 0)
(1.00004 0.00149784 0)
(1.00035 0.00148409 0)
(1.00031 0.00126584 0)
(1.00066 0.00128789 0)
(1.00005 0.00179771 0)
(1.00003 0.00243774 0)
(0.999991 0.00300213 0)
(1.00062 0.00330205 0)
(1.00108 0.00357451 0)
(1.00181 0.00374742 0)
(1.00224 0.00399112 0)
(1.00273 0.00412395 0)
(1.00285 0.00422678 0)
(1.00032 0.000296734 0)
(0.999731 0.000176134 0)
(1.00051 0.000223118 0)
(0.999456 0.000785472 0)
(1.0004 0.00137869 0)
(1.00043 0.00129154 0)
(1.00114 0.00123792 0)
(1.00019 0.00153754 0)
(1.00044 0.00165658 0)
(1.0004 0.00149744 0)
(1.00089 0.00143794 0)
(1.00044 0.00182723 0)
(1.00046 0.00237408 0)
(1.00038 0.00291203 0)
(1.00094 0.00319991 0)
(1.00137 0.00344753 0)
(1.0021 0.00356364 0)
(1.00255 0.003727 0)
(1.003 0.00384243 0)
(1.0031 0.00393081 0)
(1.00032 0.00028059 0)
(0.999715 0.000261165 0)
(1.00058 0.000314018 0)
(0.999616 0.000795612 0)
(1.00049 0.00139217 0)
(1.00046 0.0013403 0)
(1.00125 0.00123005 0)
(1.00037 0.00153867 0)
(1.00056 0.00177439 0)
(1.00049 0.00170395 0)
(1.00108 0.00159547 0)
(1.00079 0.00185973 0)
(1.00088 0.00230297 0)
(1.00077 0.00279791 0)
(1.00127 0.0030799 0)
(1.00165 0.00330277 0)
(1.00235 0.00339768 0)
(1.00281 0.0034979 0)
(1.00326 0.00356368 0)
(1.00334 0.00366077 0)
(1.00031 0.000266255 0)
(0.999702 0.000336767 0)
(1.00063 0.000409094 0)
(0.999766 0.000803438 0)
(1.00059 0.0013918 0)
(1.00049 0.00140831 0)
(1.00134 0.00126039 0)
(1.00057 0.00151968 0)
(1.00071 0.00183921 0)
(1.00059 0.00187455 0)
(1.00124 0.00174709 0)
(1.00109 0.00190453 0)
(1.00127 0.00223697 0)
(1.00115 0.00266936 0)
(1.00159 0.00294073 0)
(1.00193 0.003146 0)