/*--------------------------------*- C++ -*----------------------------------*\
| =========                 |                                                 |
| \\      /  F ield         | OpenFOAM: The Open Source CFD Toolbox           |
|  \\    /   O peration     | Version:  3.0.1                                 |
|   \\  /    A nd           | Web:      www.OpenFOAM.org                      |
|    \\/     M anipulation  |                                                 |
\*---------------------------------------------------------------------------*/
FoamFile
{
    version     2.0;
    format      ascii;
    class       volScalarField;
    location    "2.4";
    object      p;
}
// * * * * * * * * * * * * * * * * * * * * * * * * * * * * * * * * * * * * * //

dimensions      [0 2 -2 0 0 0 0];

internalField   nonuniform List<scalar> 
9600
(
9.01119e-11
-0.000441235
-0.0012705
0.00025066
0.000882875
-0.00139222
-0.000171846
0.00151307
0.000161423
0.00104345
0.00199291
0.00224868
0.00240121
0.00314736
0.00456974
0.0059166
0.00759677
0.00950256
0.0130181
0.0184836
-7.85499e-07
-0.000440079
-0.00126373
0.000240269
0.000866851
-0.00138576
-0.000161392
0.00150632
0.000171025
0.00102808
0.00199045
0.00225016
0.00238976
0.0031483
0.00457177
0.0059089
0.00761199
0.00946128
0.0131908
0.0180696
-1.64171e-06
-0.000438394
-0.00125632
0.000225122
0.000850629
-0.00137563
-0.000153352
0.00149443
0.000184877
0.001007
0.00199102
0.00225455
0.00237167
0.00315541
0.00457063
0.00590189
0.00761771
0.00941203
0.0132683
0.0174779
-2.74212e-06
-0.000437499
-0.00124812
0.000213621
0.000833077
-0.00136297
-0.000146904
0.00147689
0.000200714
0.000983449
0.001995
0.00226499
0.00234809
0.00316515
0.00456865
0.00589284
0.00761897
0.00936105
0.0132614
0.0169612
-4.46715e-06
-0.000437329
-0.00123638
0.000205316
0.000812005
-0.00134591
-0.000140333
0.00145331
0.000220639
0.00095769
0.00200123
0.00227819
0.00232143
0.00317597
0.00456847
0.00588016
0.00762141
0.00930075
0.0132315
0.0164911
-6.90528e-06
-0.000437334
-0.00122062
0.000198234
0.000788521
-0.00132369
-0.000133301
0.00142564
0.000245204
0.00092979
0.0020091
0.00229252
0.0022958
0.00318723
0.00457081
0.00586501
0.00762181
0.00923528
0.0131712
0.0160455
-9.96441e-06
-0.00043717
-0.00120139
0.000191772
0.000764323
-0.00129696
-0.000125556
0.00139623
0.000273523
0.000900699
0.00201831
0.00230825
0.00227277
0.00319842
0.00457565
0.00584763
0.00761802
0.00916754
0.0130749
0.0156176
-1.34804e-05
-0.000436643
-0.00117937
0.000185705
0.000740504
-0.00126684
-0.000116865
0.0013666
0.000304833
0.00087141
0.00202831
0.00232518
0.00225235
0.00320912
0.0045822
0.00582867
0.00760841
0.00909791
0.0129404
0.0152049
-1.7258e-05
-0.000435679
-0.00115533
0.000179783
0.000717525
-0.00123444
-0.00010717
0.00133752
0.000338656
0.000842412
0.00203852
0.00234282
0.00223426
0.00321874
0.00458948
0.00580906
0.00759099
0.00902572
0.0127695
0.0148046
-2.1137e-05
-0.000434352
-0.0011299
0.000173828
0.000695367
-0.00120071
-9.65456e-05
0.00130922
0.000374428
0.00081398
0.00204853
0.00236087
0.00221795
0.00322684
0.00459662
0.00578933
0.00756374
0.00895034
0.0125654
0.0144121
-2.50257e-05
-0.000432809
-0.00110348
0.000167713
0.000673754
-0.00116636
-8.51354e-05
0.00128158
0.000411498
0.000786383
0.0020581
0.00237912
0.00220258
0.00323348
0.00460239
0.00576952
0.00752542
0.00887083
0.0123314
0.0140218
-2.8875e-05
-0.000431179
-0.00107625
0.000161318
0.000652397
-0.00113187
-7.30905e-05
0.00125439
0.000449231
0.000759859
0.00206684
0.00239735
0.00218732
0.00323895
0.00460547
0.00574966
0.00747564
0.00878511
0.0120716
0.0136294
-3.26621e-05
-0.000429545
-0.0010483
0.00015456
0.000631114
-0.00109754
-6.05386e-05
0.00122744
0.000487073
0.000734628
0.00207421
0.00241554
0.00217152
0.00324343
0.00460499
0.00572956
0.00741444
0.00868999
0.0117907
0.0132329
-3.63652e-05
-0.000427955
-0.00101967
0.000147407
0.000609837
-0.00106352
-4.76076e-05
0.00120061
0.000524589
0.000710909
0.0020796
0.00243391
0.00215459
0.00324703
0.00460049
0.00570835
0.00734237
0.00858203
0.011493
0.012832
-3.99614e-05
-0.000426442
-0.000990404
0.000139849
0.000588571
-0.00102985
-3.44373e-05
0.00117392
0.000561402
0.000688965
0.00208241
0.00245279
0.00213599
0.00324995
0.00459174
0.0056843
0.0072611
0.00845826
0.0111814
0.0124274
-4.34234e-05
-0.000425031
-0.000960535
0.000131886
0.000567368
-0.000996513
-2.11815e-05
0.00114746
0.000597145
0.000669135
0.00208203
0.00247252
0.00211546
0.00325213
0.00457881
0.00565486
0.00717286
0.00831719
0.0108566
0.0120206
-4.67185e-05
-0.000423748
-0.000930094
0.000123527
0.000546281
-0.00096343
-8.02699e-06
0.00112141
0.000631459
0.000651753
0.0020779
0.00249325
0.00209295
0.00325313
0.00456246
0.00561704
0.00707905
0.00815884
0.0105194
0.0116137
-4.98102e-05
-0.000422618
-0.00089912
0.000114795
0.00052534
-0.000930515
4.79631e-06
0.001096
0.000663953
0.000637144
0.00206958
0.002515
0.00206837
0.00325197
0.00454448
0.00556803
0.00697953
0.00798489
0.0101691
0.0112083
-5.26608e-05
-0.000421668
-0.00086766
0.000105727
0.000504547
-0.000897651
1.70186e-05
0.0010715
0.000694211
0.000625597
0.00205677
0.00253778
0.00204189
0.00324697
0.00452693
0.00550596
0.00687282
0.00779852
0.00980468
0.0108049
-5.52289e-05
-0.000420921
-0.000835776
9.63812e-05
0.000483865
-0.000864679
2.8347e-05
0.00104816
0.000721847
0.00061734
0.0020393
0.00256111
0.00201416
0.00323626
0.00451115
0.00543032
0.00675663
0.00760345
0.00942618
0.0104025
-5.74656e-05
-0.000420386
-0.00080356
8.685e-05
0.000463196
-0.000831407
3.84997e-05
0.0010262
0.000746506
0.00061252
0.00201711
0.00258406
0.00198623
0.00321794
0.00449744
0.00534159
0.00662774
0.00740344
0.00903437
0.00999787
-5.93351e-05
-0.000420042
-0.000771139
7.7258e-05
0.000442417
-0.000797645
4.71978e-05
0.0010058
0.000767941
0.000610957
0.00199047
0.00260589
0.00195927
0.00319011
0.00448517
0.00524139
0.00648249
0.00720127
0.00863151
0.00958662
-6.08352e-05
-0.000419845
-0.000738662
6.77736e-05
0.000421383
-0.000763231
5.42079e-05
0.000987056
0.000786015
0.00061229
0.00196008
0.00262551
0.00193417
0.00315156
0.00447298
0.00513231
0.00631774
0.00699773
0.00822259
0.0091642
-6.19616e-05
-0.000419724
-0.000706297
5.86083e-05
0.000399908
-0.000728021
5.93683e-05
0.000969856
0.000800806
0.000615992
0.00192672
0.00264152
0.00191154
0.00310152
0.00445894
0.00501723
0.00613157
0.0067921
0.00781377
0.00872721
-6.27084e-05
-0.000419543
-0.000674294
4.99481e-05
0.000377834
-0.000691923
6.26173e-05
0.000953955
0.000812644
0.000621168
0.00189112
0.00265299
0.00189174
0.00303954
0.00444077
0.00489869
0.00592325
0.00658264
0.00741114
0.00827389
-6.31242e-05
-0.000419109
-0.000642918
4.19396e-05
0.000355075
-0.000654943
6.40577e-05
0.000938996
0.000821966
0.000626857
0.00185391
0.00265926
0.00187457
0.00296577
0.0044155
0.00477892
0.0056932
0.00636654
0.00702095
0.00780434
-6.32996e-05
-0.000418189
-0.0006124
3.47443e-05
0.00033153
-0.000617145
6.39025e-05
0.000924373
0.000829389
0.000632334
0.00181535
0.00265971
0.00185966
0.00288052
0.00438108
0.00466049
0.00544302
0.00613957
0.00664948
0.00732123
-6.33514e-05
-0.000416487
-0.00058296
2.8507e-05
0.000307107
-0.000578751
6.25899e-05
0.000909211
0.000835502
0.000637172
0.00177539
0.00265392
0.00184663
0.00278393
0.00433225
0.0045458
0.00517573
0.00589668
0.00630142
0.00683196
-6.34142e-05
-0.00041369
-0.000554846
2.32927e-05
0.000281883
-0.000540225
6.07941e-05
0.000892801
0.000840627
0.000641054
0.00173372
0.00264163
0.00183481
0.0026764
0.00426751
0.00443607
0.0048964
0.00563319
0.00597808
0.00634924
-6.36497e-05
-0.000409479
-0.000528239
1.90142e-05
0.000256056
-0.00050212
5.93387e-05
0.000874746
0.000844784
0.000643819
0.00168994
0.0026223
0.00182347
0.00255877
0.00418411
0.00433136
0.00461142
0.00534305
0.00567558
0.0058884
-6.42695e-05
-0.00040352
-0.000503206
1.5463e-05
0.00023002
-0.000465166
5.88899e-05
0.000854761
0.000847345
0.000645425
0.00164367
0.00259543
0.00181212
0.00243214
0.00407977
0.00423054
0.00432758
0.00502504
0.00538447
0.00546407
-6.54527e-05
-0.000395541
-0.000479779
1.23933e-05
0.000204499
-0.000430219
5.96027e-05
0.000832922
0.000847685
0.000645538
0.00159428
0.00256072
0.00180024
0.00229753
0.00395302
0.00413152
0.00405144
0.00468235
0.00509145
0.00508443
-6.73475e-05
-0.000385324
-0.000457859
9.29275e-06
0.000180275
-0.000397791
6.13879e-05
0.000809926
0.000845281
0.000643605
0.00154103
0.00251735
0.00178723
0.00215641
0.00380295
0.0040314
0.00378779
0.00432082
0.00478487
0.00474563
-7.01402e-05
-0.000372753
-0.000437126
5.35601e-06
0.000158054
-0.000368075
6.36467e-05
0.000786681
0.000839792
0.000638834
0.00148322
0.00246443
0.00177239
0.00201073
0.00362968
0.00392707
0.00353962
0.00394779
0.00445831
0.00443654
-7.38266e-05
-0.000357912
-0.000416984
-2.03547e-07
0.000138158
-0.000340735
6.51472e-05
0.000763443
0.000831464
0.000630361
0.00141983
0.00240129
0.00175528
0.0018629
0.00343393
0.0038154
0.00330914
0.00356974
0.00411033
0.00414206
-7.8469e-05
-0.000341123
-0.000396406
-7.78584e-06
0.000120242
-0.000314903
6.50879e-05
0.000739898
0.000820976
0.000617505
0.00134958
0.00232704
0.0017356
0.00171575
0.00321677
0.0036926
0.00309784
0.00319229
0.0037423
0.00384958
-8.4023e-05
-0.000322996
-0.000374066
-1.73354e-05
0.000102983
-0.000289817
6.3384e-05
0.000715501
0.000808454
0.000599844
0.00127161
0.00224096
0.00171286
0.00157242
0.00298024
0.00355388
0.00290572
0.00282102
0.00335581
0.00355118
-9.0183e-05
-0.000304329
-0.000349194
-2.83775e-05
8.482e-05
-0.000265088
6.0127e-05
0.000688977
0.000793714
0.000577636
0.00118576
0.00214309
0.00168681
0.00143572
0.00272684
0.00339384
0.00273148
0.00246267
0.00295219
0.00324147
-9.66463e-05
-0.000285912
-0.000321587
-3.98703e-05
6.42826e-05
-0.000241
5.5432e-05
0.000658622
0.000776344
0.000552376
0.00109334
0.00203368
0.00165612
0.00130745
0.00245979
0.00320778
0.00257187
0.00212543
0.00253419
0.00291496
-0.000103039
-0.000268454
-0.000290875
-5.02741e-05
4.04562e-05
-0.000219202
4.91515e-05
0.000623317
0.000755697
0.000525892
0.000996702
0.0019129
0.00161814
0.00118842
0.00218355
0.00299246
0.0024203
0.00181664
0.00210838
0.00256596
-0.000108676
-0.000252465
-0.000258128
-5.79359e-05
1.32621e-05
-0.000202069
4.08914e-05
0.00058271
0.000731056
0.000499477
0.000898449
0.00178143
0.00156973
0.00107795
0.00190354
0.00274751
0.00226796
0.00154044
0.00168548
0.00219066
-0.000112939
-0.000238238
-0.000224863
-6.14247e-05
-1.66235e-05
-0.000191842
2.96869e-05
0.000536312
0.000700923
0.000474049
0.000801763
0.00164029
0.00150793
0.000974755
0.00162514
0.00247539
0.00210665
0.00129637
0.00127736
0.00179004
-0.000115396
-0.000225788
-0.000192327
-5.97175e-05
-4.80316e-05
-0.00019027
1.41738e-05
0.000483073
0.000661501
0.000450059
0.000710313
0.00149165
0.00143059
0.000876892
0.00135291
0.00217953
0.00192964
0.00108033
0.000894508
0.00137142
-0.000116068
-0.000214611
-0.000162553
-5.24287e-05
-8.61286e-05
-0.000198119
-7.82028e-06
0.00042117
0.000611913
0.00042744
0.000626355
0.00133882
0.00133676
0.000781202
0.00109107
0.00186451
0.00173141
0.000886343
0.000544747
0.00094647
-0.000114957
-0.000204414
-0.000136823
-4.03067e-05
-0.000110953
-0.000215216
-3.79287e-05
0.0003512
0.000554687
0.000404622
0.000549757
0.00118412
0.00122657
0.000683986
0.000842327
0.00153686
0.00150795
0.000706486
0.000232695
0.000528133
-0.000111212
-0.000195122
-0.000116244
-2.6341e-05
-0.000136738
-0.00024216
-7.21451e-05
0.00028291
0.000490896
0.000373709
0.000474562
0.00102821
0.00110142
0.000582165
0.000607413
0.00120371
0.00125775
0.000530879
-4.06914e-05
0.000129177
-0.000104934
-0.000186375
-0.000102422
-1.42014e-05
-0.000160394
-0.000274242
-0.000108587
0.000218917
0.000421133
0.000330208
0.000395201
0.000871286
0.000964044
0.000474674
0.000386149
0.000871431
0.000982923
0.000349502
-0.000279616
-0.000239989
-9.71906e-05
-0.000177581
-9.59747e-05
-6.02815e-06
-0.000177831
-0.000308267
-0.000149549
0.000156793
0.000346727
0.000273823
0.000310163
0.000713842
0.000816803
0.000361011
0.000177768
0.000545204
0.000688163
0.000154886
-0.000492337
-0.000572659
-8.76374e-05
-0.000168428
-9.83321e-05
-3.15446e-06
-0.000190365
-0.000342614
-0.000196668
9.32734e-05
0.000270584
0.00020795
0.000219268
0.00055559
0.000661122
0.000240146
-1.96387e-05
0.000229025
0.000379123
-5.6736e-05
-0.000688633
-0.000866373
-7.72424e-05
-0.000158536
-0.000104016
-7.09572e-06
-0.000198966
-0.000375558
-0.000250163
2.59871e-05
0.000193409
0.000136225
0.000122623
0.000394463
0.000496736
0.00011103
-0.000207916
-7.32607e-05
6.26365e-05
-0.000285958
-0.000878077
-0.00112414
-6.66052e-05
-0.000147503
-0.000114126
-1.93924e-05
-0.000205444
-0.000405433
-0.000308994
-4.65418e-05
0.000115084
6.02282e-05
2.06747e-05
0.000229904
0.000323066
-2.6728e-05
-0.000388011
-0.00035919
-0.00025479
-0.000531135
-0.00106858
-0.00135397
-5.62709e-05
-0.000135328
-0.000127336
-4.0743e-05
-0.00019425
-0.000431208
-0.000371176
-0.000126023
3.36711e-05
-1.91927e-05
-8.43994e-05
6.37411e-05
0.000140742
-0.000174299
-0.000562124
-0.00062865
-0.000568473
-0.000788671
-0.00126433
-0.00156505
-4.70138e-05
-0.000122488
-0.000142148
-7.15499e-05
-0.000208864
-0.00045345
-0.000434187
-0.000212711
-5.34202e-05
-0.000101948
-0.000190926
-0.000102775
-4.84928e-05
-0.000332797
-0.000733319
-0.000881548
-0.000873828
-0.00105409
-0.0014664
-0.00176508
-3.95346e-05
-0.000109989
-0.000157116
-0.00011028
-0.000229715
-0.000472913
-0.000495791
-0.000305614
-0.000148929
-0.000189076
-0.000297752
-0.000267952
-0.000242367
-0.000501242
-0.000904181
-0.00111891
-0.00116734
-0.0013242
-0.00167503
-0.00195888
-3.42664e-05
-9.90081e-05
-0.000171099
-0.000154615
-0.000258642
-0.00049181
-0.000554471
-0.000402942
-0.000253955
-0.000283074
-0.000404774
-0.000428768
-0.000438588
-0.000678505
-0.00107649
-0.00134387
-0.00144732
-0.00159574
-0.00188993
-0.00214778
-3.15308e-05
-9.0834e-05
-0.000183737
-0.000201779
-0.000296596
-0.000513492
-0.000609613
-0.000503973
-0.000367622
-0.000386861
-0.000514045
-0.000583366
-0.000633614
-0.000863544
-0.0012512
-0.00155856
-0.0017128
-0.00186427
-0.00211062
-0.00233279
-3.15597e-05
-8.63765e-05
-0.000195343
-0.000249546
-0.000343389
-0.000541385
-0.000661506
-0.000601905
-0.000488476
-0.000500976
-0.000628507
-0.000733507
-0.000822846
-0.00105254
-0.00142895
-0.00176425
-0.00196403
-0.00212637
-0.00233653
-0.00251741
-3.42766e-05
-8.61661e-05
-0.000207157
-0.000296496
-0.000397796
-0.000577845
-0.000711854
-0.000696676
-0.000613708
-0.00062447
-0.00074973
-0.000881631
-0.0010054
-0.00124033
-0.00160843
-0.00196282
-0.00220175
-0.00237973
-0.00256503
-0.00270511
-3.96948e-05
-9.05669e-05
-0.000220746
-0.000341855
-0.000457837
-0.000624186
-0.000764541
-0.000787714
-0.000739101
-0.000755923
-0.000878336
-0.00102898
-0.00118311
-0.0014248
-0.0017863
-0.00215507
-0.00242656
-0.00262249
-0.00279237
-0.00289684
-4.79663e-05
-9.9721e-05
-0.000237539
-0.000385683
-0.000521238
-0.000680656
-0.000822213
-0.000875242
-0.000861325
-0.000892353
-0.00101478
-0.00117668
-0.00135567
-0.00160646
-0.00196056
-0.0023391
-0.00263868
-0.0028535
-0.00301585
-0.00309167
-5.89961e-05
-0.000113582
-0.000258674
-0.000428873
-0.000586076
-0.000746131
-0.00088694
-0.000961366
-0.000979669
-0.00102913
-0.00115679
-0.00132735
-0.00152319
-0.00178401
-0.00213182
-0.00251352
-0.00283698
-0.00307129
-0.00323242
-0.00328735
-7.33375e-05
-0.000131999
-0.000284837
-0.000472749
-0.000651175
-0.000818421
-0.000959749
-0.00104932
-0.001095
-0.00116336
-0.00129997
-0.00148049
-0.00168821
-0.00195566
-0.00229986
-0.00267983
-0.00302029
-0.00327408
-0.00343856
-0.00348061
-9.14414e-05
-0.000154678
-0.000316159
-0.00051912
-0.00071647
-0.000894941
-0.00104016
-0.00114111
-0.00120802
-0.00129476
-0.00144094
-0.0016317
-0.00185162
-0.00212195
-0.00246217
-0.00283919
-0.00318902
-0.0034602
-0.00363127
-0.00366719
-0.000113785
-0.000181516
-0.000352437
-0.000569355
-0.000782719
-0.00097367
-0.00112692
-0.00123783
-0.0013202
-0.0014229
-0.00157895
-0.00177815
-0.00200967
-0.002284
-0.00261759
-0.00299018
-0.0033445
-0.00362866
-0.00380812
-0.0038421
-0.000140797
-0.000212837
-0.000393111
-0.000623766
-0.000851196
-0.00105427
-0.00121801
-0.00133943
-0.00143355
-0.00154741
-0.00171237
-0.00191891
-0.00215842
-0.0024383
-0.00276624
-0.00313078
-0.00348674
-0.00377992
-0.00396785
-0.00400313
-0.000172805
-0.000248972
-0.000438043
-0.000682296
-0.000923272
-0.00113753
-0.00131169
-0.00144431
-0.00154908
-0.00166988
-0.00183998
-0.00205267
-0.00229698
-0.00257986
-0.00290506
-0.00325987
-0.00361364
-0.00391376
-0.0041095
-0.00414838
-0.000209988
-0.000290299
-0.000487357
-0.000744905
-0.000999423
-0.00122416
-0.00140824
-0.00155141
-0.00166572
-0.00179133
-0.00196189
-0.00217704
-0.00242471
-0.00270677
-0.00302918
-0.00337595
-0.00372328
-0.0040279
-0.00423121
-0.00427532
-0.000252388
-0.000336987
-0.000541453
-0.000811706
-0.00107971
-0.00131458
-0.0015079
-0.00166073
-0.00178296
-0.00191148
-0.00207901
-0.00229048
-0.00253818
-0.00281738
-0.00313367
-0.00347406
-0.0038132
-0.00411823
-0.00432922
-0.00438032
-0.000300185
-0.000389136
-0.000600637
-0.000882828
-0.00116432
-0.00140936
-0.0016111
-0.00177223
-0.00190093
-0.0020302
-0.00219192
-0.0023938
-0.00263442
-0.00290758
-0.00321411
-0.00354628
-0.00387754
-0.00417892
-0.00439639
-0.00445654
-0.000353413
-0.000446884
-0.000665146
-0.000958113
-0.00125335
-0.00150934
-0.00171887
-0.00188675
-0.00202032
-0.00214809
-0.00230083
-0.002488
-0.00271244
-0.00297192
-0.00326313
-0.00358253
-0.0039063
-0.00420328
-0.00442535
-0.00449646
-0.000412362
-0.000510255
-0.000735018
-0.0010374
-0.00134682
-0.00161539
-0.00183264
-0.0020054
-0.00214214
-0.00226667
-0.00240733
-0.00257503
-0.00277415
-0.00300638
-0.00327006
-0.00356489
-0.0038771
-0.00417352
-0.00440488
-0.00449427
-0.00047732
-0.000580046
-0.000809422
-0.00112097
-0.00144525
-0.00172747
-0.00195419
-0.00213167
-0.00226867
-0.00238714
-0.00251196
-0.00265466
-0.00282187
-0.00301448
-0.0032333
-0.0034812
-0.00375463
-0.00403368
-0.00427412
-0.00440242
-0.000546476
-0.000653417
-0.000889632
-0.0012115
-0.00155017
-0.00184558
-0.0020833
-0.00227015
-0.00240978
-0.00251747
-0.00261758
-0.00272287
-0.00284789
-0.00299504
-0.0031653
-0.00335925
-0.00357308
-0.00379358
-0.00398046
-0.00407514
-0.000618858
-0.000729418
-0.000976496
-0.00130949
-0.00166074
-0.00196952
-0.00222046
-0.00242145
-0.00257548
-0.00268697
-0.00276063
-0.00279361
-0.00280026
-0.0028048
-0.00284238
-0.00295433
-0.00315999
-0.00344756
-0.00376061
-0.0040053
-0.000696596
-0.000814483
-0.00106778
-0.00140751
-0.00176903
-0.00209281
-0.00236253
-0.00258615
-0.00276369
-0.00290469
-0.00303804
-0.00315584
-0.00319115
-0.00304952
-0.00272727
-0.00237257
-0.0020822
-0.00188756
-0.00179734
-0.00184186
-0.00078012
-0.000909049
-0.00116868
-0.00150966
-0.00187348
-0.00220394
-0.00248491
-0.00273091
-0.00293496
-0.00306673
-0.00305864
-0.00287934
-0.00263804
-0.00244181
-0.00231669
-0.00225044
-0.00221311
-0.0021796
-0.00216185
-0.00221013
-0.000865886
-0.000989992
-0.00126961
-0.00163798
-0.00203662
-0.002411
-0.00271787
-0.00291062
-0.00293297
-0.00283208
-0.00271658
-0.00262771
-0.00256575
-0.00250072
-0.00237591
-0.00218828
-0.00195818
-0.00172961
-0.00156544
-0.00155098
-0.000983562
-0.00110824
-0.00132298
-0.00162327
-0.00197733
-0.00231369
-0.00256497
-0.00272174
-0.00279817
-0.00282008
-0.00284727
-0.00289486
-0.00295352
-0.0030334
-0.00307819
-0.00302098
-0.00281213
-0.00243363
-0.00197788
-0.00163996
-0.00107473
-0.00123547
-0.0014861
-0.00179055
-0.00210963
-0.00239743
-0.00260713
-0.00274065
-0.0028129
-0.00281483
-0.00276569
-0.00269617
-0.00258064
-0.00243113
-0.0022598
-0.00206359
-0.00186642
-0.00169547
-0.00160291
-0.00166286
-0.00107579
-0.00121953
-0.00150058
-0.00187656
-0.00225515
-0.00255657
-0.00272117
-0.00276381
-0.0027446
-0.00269521
-0.00263481
-0.00260912
-0.00259811
-0.00256846
-0.00251669
-0.00242644
-0.00230005
-0.00216263
-0.00207045
-0.00210919
0.0287369
0.0190793
0.00754801
-0.000214922
-0.00283399
-0.00277173
-0.00261957
-0.00287087
-0.00319321
-0.00340575
-0.00353481
-0.0036263
-0.00375321
-0.00402296
-0.00442506
-0.00478514
-0.00499265
-0.00515172
-0.00538991
-0.00570487
-0.00605043
-0.00637483
-0.00663969
-0.00689398
-0.00721018
-0.00756157
-0.00786893
-0.00811087
-0.00832999
-0.00856927
-0.00882269
-0.00906177
-0.00928989
-0.00953945
-0.00981957
-0.0101063
-0.010395
-0.0107061
-0.011034
-0.0113412
-0.0116201
-0.0119047
-0.0122077
-0.0124999
-0.012776
-0.0130687
-0.0133904
-0.0137176
-0.0140413
-0.0143805
-0.0147376
-0.0150804
-0.015414
-0.0157677
-0.0161204
-0.0164628
-0.0168211
-0.0171901
-0.0175615
-0.0179493
-0.0183483
-0.0187466
-0.0191495
-0.0195553
-0.019963
-0.0203812
-0.0208125
-0.0212484
-0.021689
-0.0221346
-0.0225848
-0.0230445
-0.0235147
-0.0239912
-0.0244739
-0.0249609
-0.0254562
-0.0259565
-0.0264694
-0.0269913
-0.0275202
-0.0280555
-0.0285985
-0.0291505
-0.0297149
-0.0302867
-0.0308709
-0.0314613
-0.0320634
-0.0326734
-0.0332957
-0.0339285
-0.0345728
-0.0352281
-0.0358942
-0.0365729
-0.0372726
-0.0379689
-0.0386701
-0.0393964
0.027142
0.0188743
0.00762716
-7.56154e-05
-0.00274407
-0.00272671
-0.0025935
-0.00285507
-0.00318263
-0.00339759
-0.00352793
-0.00362003
-0.0037471
-0.00401717
-0.00442007
-0.00478105
-0.00498903
-0.00514829
-0.00538671
-0.00570198
-0.00604788
-0.00637263
-0.0066377
-0.00689203
-0.00720831
-0.00755991
-0.00786746
-0.00810951
-0.00832867
-0.00856801
-0.00882153
-0.00906071
-0.00928888
-0.00953847
-0.00981865
-0.0101054
-0.0103942
-0.0107053
-0.0110332
-0.0113405
-0.0116194
-0.011904
-0.0122071
-0.0124993
-0.0127754
-0.0130682
-0.0133899
-0.0137171
-0.0140408
-0.01438
-0.0147372
-0.01508
-0.0154136
-0.0157673
-0.0161201
-0.0164625
-0.0168208
-0.0171898
-0.0175612
-0.017949
-0.018348
-0.0187464
-0.0191492
-0.0195551
-0.0199627
-0.020381
-0.0208123
-0.0212482
-0.0216888
-0.0221344
-0.0225846
-0.0230444
-0.0235145
-0.023991
-0.0244737
-0.0249607
-0.025456
-0.0259564
-0.0264692
-0.0269911
-0.02752
-0.0280554
-0.0285983
-0.0291504
-0.0297148
-0.0302866
-0.0308708
-0.0314612
-0.0320633
-0.0326733
-0.0332956
-0.0339284
-0.0345727
-0.035228
-0.0358941
-0.0365728
-0.0372725
-0.0379689
-0.03867
-0.0393964
0.0259042
0.0187391
0.00781271
0.000180511
-0.00259914
-0.00267209
-0.00256346
-0.00283191
-0.00316562
-0.00338548
-0.00351923
-0.0036136
-0.00374179
-0.00401216
-0.0044153
-0.00477674
-0.00498521
-0.00514488
-0.00538369
-0.00569923
-0.0060454
-0.00637049
-0.0066358
-0.00689025
-0.00720668
-0.00755848
-0.00786617
-0.00810829
-0.00832748
-0.00856688
-0.00882049
-0.00905975
-0.00928796
-0.00953758
-0.00981782
-0.0101046
-0.0103934
-0.0107046
-0.0110326
-0.0113399
-0.0116188
-0.0119035
-0.0122066
-0.0124988
-0.0127749
-0.0130677
-0.0133894
-0.0137167
-0.0140404
-0.0143796
-0.0147368
-0.0150797
-0.0154132
-0.015767
-0.0161198
-0.0164622
-0.0168205
-0.0171895
-0.0175609
-0.0179488
-0.0183478
-0.0187461
-0.019149
-0.0195549
-0.0199625
-0.0203808
-0.0208121
-0.021248
-0.0216887
-0.0221343
-0.0225845
-0.0230442
-0.0235144
-0.0239909
-0.0244736
-0.0249606
-0.0254559
-0.0259562
-0.0264691
-0.026991
-0.0275199
-0.0280553
-0.0285982
-0.0291503
-0.0297147
-0.0302865
-0.0308707
-0.0314611
-0.0320632
-0.0326732
-0.0332955
-0.0339283
-0.0345727
-0.0352279
-0.035894
-0.0365728
-0.0372724
-0.0379688
-0.03867
-0.0393964
0.0247564
0.0185625
0.00802394
0.00049059
-0.0024075
-0.00259651
-0.00251778
-0.00279312
-0.00313587
-0.00336441
-0.00350485
-0.00360452
-0.00373618
-0.00400744
-0.00440979
-0.00477077
-0.00497997
-0.00514087
-0.0053804
-0.00569592
-0.00604198
-0.00636739
-0.00663329
-0.00688819
-0.00720486
-0.0075568
-0.00786464
-0.00810691
-0.0083262
-0.00856563
-0.0088193
-0.00905865
-0.00928693
-0.00953661
-0.00981691
-0.0101038
-0.0103926
-0.0107039
-0.0110319
-0.0113393
-0.0116182
-0.0119029
-0.012206
-0.0124983
-0.0127744
-0.0130672
-0.013389
-0.0137162
-0.01404
-0.0143792
-0.0147364
-0.0150793
-0.0154129
-0.0157666
-0.0161195
-0.0164619
-0.0168202
-0.0171893
-0.0175606
-0.0179485
-0.0183475
-0.0187459
-0.0191488
-0.0195547
-0.0199623
-0.0203806
-0.0208119
-0.0212478
-0.0216885
-0.0221341
-0.0225843
-0.023044
-0.0235142
-0.0239908
-0.0244734
-0.0249605
-0.0254557
-0.0259561
-0.026469
-0.0269909
-0.0275198
-0.0280552
-0.0285981
-0.0291502
-0.0297146
-0.0302864
-0.0308706
-0.031461
-0.0320631
-0.0326731
-0.0332954
-0.0339282
-0.0345726
-0.0352279
-0.0358939
-0.0365727
-0.0372724
-0.0379688
-0.03867
-0.0393966
0.0236015
0.0183105
0.00822961
0.000816454
-0.00219648
-0.00251068
-0.0024636
-0.00274225
-0.00309358
-0.00333298
-0.00348276
-0.00359086
-0.00372909
-0.0040025
-0.00440304
-0.00476231
-0.00497256
-0.00513599
-0.00537697
-0.0056921
-0.0060372
-0.00636257
-0.00662947
-0.00688542
-0.00720247
-0.0075544
-0.00786244
-0.00810516
-0.00832472
-0.00856416
-0.00881779
-0.00905724
-0.00928567
-0.00953542
-0.00981576
-0.0101027
-0.0103917
-0.0107031
-0.0110312
-0.0113386
-0.0116175
-0.0119022
-0.0122054
-0.0124977
-0.0127738
-0.0130666
-0.0133884
-0.0137157
-0.0140395
-0.0143787
-0.014736
-0.0150789
-0.0154125
-0.0157663
-0.0161191
-0.0164615
-0.0168199
-0.0171889
-0.0175603
-0.0179482
-0.0183472
-0.0187456
-0.0191485
-0.0195544
-0.0199621
-0.0203804
-0.0208117
-0.0212476
-0.0216883
-0.0221339
-0.0225841
-0.0230439
-0.023514
-0.0239906
-0.0244733
-0.0249603
-0.0254556
-0.025956
-0.0264688
-0.0269907
-0.0275197
-0.0280551
-0.028598
-0.0291501
-0.0297145
-0.0302863
-0.0308705
-0.0314609
-0.032063
-0.032673
-0.0332954
-0.0339281
-0.0345725
-0.0352278
-0.0358938
-0.0365726
-0.0372723
-0.0379687
-0.0386699
-0.0393968
0.0224486
0.0179975
0.00842917
0.00114856
-0.00197535
-0.00242108
-0.00240886
-0.00268742
-0.00304464
-0.00329456
-0.00345454
-0.00357292
-0.00372008
-0.00399678
-0.00439481
-0.00475135
-0.00496298
-0.00513024
-0.00537355
-0.00568807
-0.00603127
-0.00635597
-0.00662414
-0.00688166
-0.00719913
-0.00755077
-0.00785908
-0.00810273
-0.00832297
-0.00856242
-0.0088159
-0.0090555
-0.00928418
-0.00953396
-0.00981422
-0.0101013
-0.0103905
-0.0107021
-0.0110302
-0.0113377
-0.0116167
-0.0119014
-0.0122046
-0.0124969
-0.0127731
-0.0130659
-0.0133877
-0.0137151
-0.0140389
-0.0143782
-0.0147355
-0.0150784
-0.015412
-0.0157658
-0.0161187
-0.0164611
-0.0168195
-0.0171886
-0.01756
-0.0179479
-0.0183469
-0.0187453
-0.0191482
-0.0195542
-0.0199618
-0.0203801
-0.0208114
-0.0212474
-0.0216881
-0.0221337
-0.0225839
-0.0230437
-0.0235139
-0.0239904
-0.0244731
-0.0249602
-0.0254554
-0.0259558
-0.0264687
-0.0269906
-0.0275195
-0.0280549
-0.0285979
-0.0291499
-0.0297144
-0.0302862
-0.0308704
-0.0314608
-0.0320629
-0.0326729
-0.0332953
-0.033928
-0.0345724
-0.0352277
-0.0358938
-0.0365725
-0.0372722
-0.0379687
-0.0386699
-0.0393971
0.0213171
0.017636
0.00861729
0.00148153
-0.00174601
-0.00232804
-0.00235543
-0.00263197
-0.00299244
-0.00325204
-0.00342239
-0.00355193
-0.00370924
-0.00398998
-0.00438521
-0.00473854
-0.00495182
-0.00512381
-0.00537015
-0.00568403
-0.00602467
-0.00634816
-0.00661771
-0.00687709
-0.00719471
-0.00754558
-0.00785416
-0.0080993
-0.00832073
-0.00856029
-0.00881357
-0.00905344
-0.00928258
-0.00953234
-0.00981229
-0.0100994
-0.010389
-0.0107008
-0.011029
-0.0113366
-0.0116158
-0.0119006
-0.0122037
-0.012496
-0.0127723
-0.0130651
-0.0133869
-0.0137143
-0.0140382
-0.0143776
-0.0147349
-0.0150779
-0.0154115
-0.0157653
-0.0161182
-0.0164606
-0.016819
-0.0171882
-0.0175595
-0.0179475
-0.0183466
-0.018745
-0.0191479
-0.0195538
-0.0199615
-0.0203798
-0.0208111
-0.0212472
-0.0216878
-0.0221335
-0.0225837
-0.0230434
-0.0235136
-0.0239902
-0.0244729
-0.02496
-0.0254553
-0.0259556
-0.0264685
-0.0269905
-0.0275194
-0.0280548
-0.0285977
-0.0291498
-0.0297142
-0.030286
-0.0308703
-0.0314607
-0.0320628
-0.0326728
-0.0332952
-0.0339279
-0.0345723
-0.0352276
-0.0358937
-0.0365724
-0.0372721
-0.0379686
-0.0386699
-0.0393976
0.0202212
0.0172272
0.00878391
0.00181151
-0.00150715
-0.00222899
-0.00230253
-0.00257661
-0.0029381
-0.00320664
-0.00338749
-0.00352863
-0.00369678
-0.00398211
-0.0043746
-0.00472457
-0.00493969
-0.00511688
-0.00536662
-0.00567991
-0.00601774
-0.00633982
-0.00661085
-0.00687215
-0.00718948
-0.0075389
-0.0078476
-0.00809466
-0.00831778
-0.00855763
-0.00881071
-0.00905106
-0.00928094
-0.00953072
-0.00981014
-0.0100971
-0.0103871
-0.010699
-0.0110272
-0.011335
-0.0116147
-0.0118997
-0.0122027
-0.012495
-0.0127714
-0.0130642
-0.0133859
-0.0137133
-0.0140373
-0.0143768
-0.0147341
-0.0150772
-0.0154109
-0.0157648
-0.0161177
-0.0164601
-0.0168185
-0.0171876
-0.017559
-0.017947
-0.0183461
-0.0187446
-0.0191475
-0.0195535
-0.0199611
-0.0203795
-0.0208108
-0.0212469
-0.0216875
-0.0221332
-0.0225834
-0.0230432
-0.0235134
-0.02399
-0.0244727
-0.0249598
-0.0254551
-0.0259555
-0.0264683
-0.0269903
-0.0275192
-0.0280546
-0.0285976
-0.0291497
-0.0297141
-0.0302859
-0.0308701
-0.0314605
-0.0320627
-0.0326727
-0.033295
-0.0339278
-0.0345722
-0.0352275
-0.0358936
-0.0365723
-0.037272
-0.0379685
-0.0386698
-0.0393981
0.0191685
0.0167708
0.00892202
0.00213791
-0.00125606
-0.00212101
-0.00224933
-0.00252209
-0.00288252
-0.00315904
-0.00335035
-0.00350334
-0.00368286
-0.00397335
-0.0043633
-0.00470983
-0.00492685
-0.00510947
-0.00536283
-0.00567559
-0.00601059
-0.00633128
-0.00660396
-0.00686721
-0.00718385
-0.00753117
-0.00783966
-0.00808886
-0.00831404
-0.00855435
-0.00880727
-0.0090483
-0.00927926
-0.00952921
-0.00980799
-0.0100947
-0.0103849
-0.0106969
-0.0110248
-0.0113328
-0.0116131
-0.0118984
-0.0122014
-0.0124938
-0.0127704
-0.0130633
-0.0133847
-0.013712
-0.0140363
-0.0143758
-0.0147332
-0.0150763
-0.0154102
-0.0157641
-0.016117
-0.0164594
-0.0168179
-0.017187
-0.0175584
-0.0179464
-0.0183456
-0.0187441
-0.0191471
-0.019553
-0.0199607
-0.020379
-0.0208104
-0.0212465
-0.0216872
-0.0221329
-0.0225831
-0.0230429
-0.0235131
-0.0239897
-0.0244725
-0.0249595
-0.0254548
-0.0259552
-0.0264681
-0.0269901
-0.027519
-0.0280545
-0.0285974
-0.0291495
-0.0297139
-0.0302857
-0.03087
-0.0314604
-0.0320625
-0.0326726
-0.0332949
-0.0339277
-0.0345721
-0.0352274
-0.0358934
-0.0365722
-0.0372719
-0.0379683
-0.0386698
-0.0393987
0.0181629
0.016271
0.0090288
0.00246042
-0.000991766
-0.0020027
-0.002196
-0.0024698
-0.00282679
-0.00310959