/*--------------------------------*- C++ -*----------------------------------*\
| =========                 |                                                 |
| \\      /  F ield         | OpenFOAM: The Open Source CFD Toolbox           |
|  \\    /   O peration     | Version:  3.0.1                                 |
|   \\  /    A nd           | Web:      www.OpenFOAM.org                      |
|    \\/     M anipulation  |                                                 |
\*---------------------------------------------------------------------------*/
FoamFile
{
    version     2.0;
    format      ascii;
    class       surfaceScalarField;
    location    "2.4";
    object      phi;
}
// * * * * * * * * * * * * * * * * * * * * * * * * * * * * * * * * * * * * * //

dimensions      [0 3 -1 0 0 0 0];

internalField   nonuniform List<scalar> 
19000
(
1.16563e-06
-5.41217e-08
1.18342e-06
-3.53836e-07
1.20977e-06
2.34651e-07
1.1462e-06
6.14334e-07
1.1075e-06
1.15701e-07
1.15944e-06
-5.0012e-07
1.19751e-06
-5.69084e-07
1.17202e-06
-6.68764e-07
1.20096e-06
2.71126e-07
1.16508e-06
1.55952e-07
1.15957e-06
4.38722e-07
1.1467e-06
5.18979e-07
1.1302e-06
1.30556e-07
1.13776e-06
4.7055e-08
1.13917e-06
-1.46852e-07
1.13778e-06
-1.16821e-07
1.14919e-06
-1.59381e-07
1.13308e-06
-2.76999e-07
1.149e-06
-3.86401e-08
-3.52731e-07
1.0854e-06
1.22052e-06
-5.0376e-08
1.23871e-06
-3.72033e-07
1.2643e-06
2.09067e-07
1.20957e-06
6.69062e-07
1.16505e-06
1.60219e-07
1.21207e-06
-5.4714e-07
1.25136e-06
-6.08379e-07
1.22768e-06
-6.45075e-07
1.25378e-06
2.45016e-07
1.22446e-06
1.85273e-07
1.20676e-06
4.56421e-07
1.21147e-06
5.14269e-07
1.18481e-06
1.57225e-07
1.20151e-06
3.03531e-08
1.19244e-06
-1.37789e-07
1.20529e-06
-1.29664e-07
1.19897e-06
-1.53066e-07
1.20408e-06
-2.82106e-07
1.19433e-06
-2.88903e-08
-3.30668e-07
1.17227e-06
1.27713e-06
-4.47197e-08
1.296e-06
-3.9091e-07
1.31852e-06
1.86547e-07
1.27927e-06
7.08314e-07
1.22993e-06
2.09559e-07
1.2679e-06
-5.85109e-07
1.30559e-06
-6.46067e-07
1.28827e-06
-6.27761e-07
1.30609e-06
2.27204e-07
1.28915e-06
2.02205e-07
1.2597e-06
4.85871e-07
1.27306e-06
5.0091e-07
1.24832e-06
1.81972e-07
1.26085e-06
1.7817e-08
1.25467e-06
-1.31609e-07
1.26357e-06
-1.38558e-07
1.26133e-06
-1.50824e-07
1.26249e-06
-2.83272e-07
1.26355e-06
-2.99525e-08
-3.05951e-07
1.23884e-06
1.33611e-06
-3.67284e-08
1.35503e-06
-4.09823e-07
1.37357e-06
1.68e-07
1.35056e-06
7.31325e-07
1.30115e-06
2.58969e-07
1.32769e-06
-6.11642e-07
1.36066e-06
-6.79037e-07
1.35226e-06
-6.19366e-07
1.36175e-06
2.17716e-07
1.35394e-06
2.10018e-07
1.32287e-06
5.16938e-07
1.33355e-06
4.9023e-07
1.31959e-06
1.95928e-07
1.32382e-06
1.35887e-08
1.3218e-06
-1.29586e-07
1.32698e-06
-1.43739e-07
1.32635e-06
-1.50191e-07
1.32537e-06
-2.82292e-07
1.32784e-06
-3.2428e-08
-2.80584e-07
1.30247e-06
1.39858e-06
-2.69566e-08
1.41562e-06
-4.2686e-07
1.4305e-06
1.53124e-07
1.42119e-06
7.40635e-07
1.37769e-06
3.02467e-07
1.39168e-06
-6.25639e-07
1.41782e-06
-7.05173e-07
1.41725e-06
-6.18795e-07
1.42179e-06
2.13176e-07
1.41793e-06
2.13874e-07
1.39392e-06
5.40946e-07
1.39949e-06
4.84663e-07
1.39414e-06
2.01283e-07
1.39409e-06
1.36325e-08
1.39171e-06
-1.27206e-07
1.39586e-06
-1.47885e-07
1.39424e-06
-1.48576e-07
1.3915e-06
-2.79552e-07
1.39428e-06
-3.52004e-08
-2.54744e-07
1.36844e-06
1.46552e-06
-1.67988e-08
1.47835e-06
-4.39695e-07
1.49049e-06
1.4099e-07
1.49137e-06
7.39754e-07
1.45812e-06
3.35717e-07
1.46036e-06
-6.27877e-07
1.4783e-06
-7.23122e-07
1.48247e-06
-6.22956e-07
1.48568e-06
2.09962e-07
1.48328e-06
2.16269e-07
1.4685e-06
5.55733e-07
1.47185e-06
4.81311e-07
1.47044e-06
2.02697e-07
1.46909e-06
1.49756e-08
1.4649e-06
-1.23009e-07
1.46764e-06
-1.50632e-07
1.46524e-06
-1.46173e-07
1.46005e-06
-2.74365e-07
1.46333e-06
-3.8481e-08
-2.284e-07
1.43699e-06
1.53721e-06
-7.7904e-09
1.54428e-06
-4.46765e-07
1.55453e-06
1.30742e-07
1.56273e-06
7.31546e-07
1.54088e-06
3.57569e-07
1.53397e-06
-6.20967e-07
1.54302e-06
-7.32174e-07
1.54853e-06
-6.28461e-07
1.55262e-06
2.05872e-07
1.55175e-06
2.17143e-07
1.54477e-06
5.62712e-07
1.54858e-06
4.77492e-07
1.54868e-06
2.02598e-07
1.54677e-06
1.68911e-08
1.54119e-06
-1.17431e-07
1.542e-06
-1.51442e-07
1.53902e-06
-1.43194e-07
1.53128e-06
-2.66623e-07
1.53476e-06
-4.19642e-08
-2.01898e-07
1.50826e-06
1.61322e-06
-8.81271e-10
1.61441e-06
-4.4795e-07
1.62316e-06
1.21984e-07
1.63674e-06
7.17969e-07
1.62487e-06
3.6944e-07
1.61223e-06
-6.08326e-07
1.61258e-06
-7.32529e-07
1.61669e-06
-6.32569e-07
1.6223e-06
2.00264e-07
1.62371e-06
2.1573e-07
1.62285e-06
5.63573e-07
1.62811e-06
4.72236e-07
1.62898e-06
2.01728e-07
1.62655e-06
1.93229e-08
1.62019e-06
-1.1107e-07
1.61912e-06
-1.50371e-07
1.6157e-06
-1.39774e-07
1.60557e-06
-2.56501e-07
1.60895e-06
-4.53363e-08
-1.75637e-07
1.58269e-06
1.69288e-06
3.81428e-09
1.68934e-06
-4.44408e-07
1.69664e-06
1.1468e-07
1.71405e-06
7.00565e-07
1.70971e-06
3.73772e-07
1.6944e-06
-5.93011e-07
1.68727e-06
-7.25397e-07
1.68829e-06
-6.33592e-07
1.69498e-06
1.93571e-07
1.69891e-06
2.11798e-07
1.70308e-06
5.59406e-07
1.70976e-06
4.65552e-07
1.71125e-06
2.00244e-07
1.70836e-06
2.22132e-08
1.70174e-06
-1.04451e-07
1.69904e-06
-1.47669e-07
1.69543e-06
-1.36171e-07
1.68325e-06
-2.44314e-07
1.68628e-06
-4.83689e-08
-1.50058e-07
1.6607e-06
1.77579e-06
6.74935e-09
1.76922e-06
-4.37838e-07
1.77502e-06
1.08875e-07
1.7948e-06
6.80783e-07
1.79569e-06
3.72888e-07
1.7798e-06
-5.77127e-07
1.76705e-06
-7.12641e-07
1.76437e-06
-6.3092e-07
1.7713e-06
1.86648e-07
1.77722e-06
2.0587e-07
1.78558e-06
5.51051e-07
1.79341e-06
4.57718e-07
1.79556e-06
1.98093e-07
1.79231e-06
2.54678e-08
1.78593e-06
-9.80687e-08
1.78184e-06
-1.43586e-07
1.77833e-06
-1.32653e-07
1.76454e-06
-2.30525e-07
1.767e-06
-5.08311e-08
-1.25691e-07
1.74263e-06
1.86198e-06
8.51283e-09
1.8539e-06
-4.29751e-07
1.85823e-06
1.04539e-07
1.87912e-06
6.59901e-07
1.88344e-06
3.68565e-07
1.86812e-06
-5.6181e-07
1.8517e-06
-6.96221e-07
1.84555e-06
-6.24763e-07
1.852e-06
1.80191e-07
1.859e-06
1.98869e-07
1.87066e-06
5.39397e-07
1.87932e-06
4.49052e-07
1.88229e-06
1.95126e-07
1.87875e-06
2.90107e-08
1.87299e-06
-9.23068e-08
1.86778e-06
-1.38379e-07
1.86448e-06
-1.29357e-07
1.84966e-06
-2.15705e-07
1.85128e-06
-5.24492e-08
-1.03092e-07
1.82868e-06
1.95179e-06
9.5614e-09
1.94316e-06
-4.21123e-07
1.94615e-06
1.01549e-07
1.96725e-06
6.38806e-07
1.97378e-06
3.62028e-07
1.95946e-06
-5.47484e-07
1.94099e-06
-6.77758e-07
1.93198e-06
-6.15745e-07
1.93769e-06
1.74481e-07
1.94487e-06
1.9168e-07
1.95893e-06
5.25341e-07
1.9681e-06
4.39887e-07
1.97203e-06
1.91193e-07
1.96822e-06
3.28172e-08
1.96328e-06
-8.73684e-08
1.95722e-06
-1.32317e-07
1.95409e-06
-1.26225e-07
1.93884e-06
-2.00452e-07
1.93932e-06
-5.29271e-08
-8.27346e-08
1.91896e-06
2.04558e-06
1.01741e-08
2.03687e-06
-4.12419e-07
2.03871e-06
9.97088e-08
2.05959e-06
6.17928e-07
2.06753e-06
3.54094e-07
2.05417e-06
-5.34125e-07
2.03478e-06
-6.58368e-07
2.02358e-06
-6.04543e-07
2.02863e-06
1.69424e-07
2.03539e-06
1.8492e-07
2.05112e-06
5.0961e-07
2.06046e-06
4.30551e-07
2.06545e-06
1.86203e-07
2.06136e-06
3.69026e-08
2.05726e-06
-8.32638e-08
2.05062e-06
-1.25675e-07
2.04741e-06
-1.23019e-07
2.03229e-06
-1.85327e-07
2.03142e-06
-5.20623e-08
-6.4845e-08
2.01353e-06
2.14366e-06
1.05138e-08
2.13503e-06
-4.03784e-07
2.13596e-06
9.87708e-08
2.15656e-06
5.97335e-07
2.16535e-06
3.45301e-07
2.15271e-06
-5.21486e-07
2.13305e-06
-6.38711e-07
2.12021e-06
-5.91699e-07
2.1249e-06
1.64732e-07
2.1309e-06
1.78917e-07
2.14785e-06
4.92664e-07
2.15708e-06
4.21322e-07
2.16313e-06
1.80146e-07
2.15876e-06
4.12768e-08
2.15533e-06
-7.98374e-08
2.1484e-06
-1.18745e-07
2.14475e-06
-1.19366e-07
2.13025e-06
-1.70823e-07
2.128e-06
-4.98157e-08
-4.93444e-08
2.1125e-06
2.24632e-06
1.06872e-08
2.23775e-06
-3.95217e-07
2.23805e-06
9.84652e-08
2.25847e-06
5.76917e-07
2.26778e-06
3.35996e-07
2.25553e-06
-5.09235e-07
2.23593e-06
-6.19118e-07
2.2218e-06
-5.77564e-07
2.22646e-06
1.60067e-07
2.23158e-06
1.73797e-07
2.24953e-06
4.74716e-07
2.25846e-06
4.12391e-07
2.26551e-06
1.73095e-07
2.2609e-06
4.58925e-08
2.25786e-06
-7.68012e-08
2.25096e-06
-1.11843e-07
2.24644e-06
-1.14841e-07
2.23291e-06
-1.57301e-07
2.22947e-06
-4.6376e-08
-3.5849e-08
2.21598e-06
2.35379e-06
1.07708e-08
2.34525e-06
-3.86677e-07
2.34517e-06
9.85421e-08
2.36557e-06
5.56522e-07
2.37519e-06
3.26377e-07
2.36301e-06
-4.97053e-07
2.34363e-06
-5.99739e-07
2.3284e-06
-5.62333e-07
2.33335e-06
1.5511e-07
2.33757e-06
1.69581e-07
2.35646e-06
4.55826e-07
2.365e-06
4.03855e-07
2.37288e-06
1.6521e-07
2.36815e-06
5.06204e-08
2.36514e-06
-7.37826e-08
2.35858e-06
-1.05286e-07
2.35286e-06
-1.09127e-07
2.34046e-06
-1.44902e-07
2.33617e-06
-4.20806e-08
-2.38527e-08
2.32417e-06
2.46635e-06
1.08152e-08
2.45779e-06
-3.78116e-07
2.45753e-06
9.88007e-08
2.47801e-06
5.36045e-07
2.48786e-06
3.16526e-07
2.47548e-06
-4.84676e-07
2.45639e-06
-5.80649e-07
2.44015e-06
-5.46095e-07
2.44567e-06
1.49596e-07
2.449e-06
1.66245e-07
2.46882e-06
4.36009e-07
2.47695e-06
3.95723e-07
2.48544e-06
1.56727e-07
2.48082e-06
5.52354e-08
2.4774e-06
-7.03597e-08
2.47148e-06
-9.93671e-08
2.46444e-06
-1.02092e-07
2.45304e-06
-1.33499e-07
2.44833e-06
-3.73667e-08
-1.28852e-08
2.43736e-06
2.58426e-06
1.08474e-08
2.57564e-06
-3.69495e-07
2.57535e-06
9.90924e-08
2.59594e-06
5.15452e-07
2.60603e-06
3.06442e-07
2.59325e-06
-4.719e-07
2.57451e-06
-5.61912e-07
2.55729e-06
-5.28875e-07
2.56356e-06
1.43329e-07
2.56606e-06
1.63742e-07
2.58676e-06
4.15313e-07
2.59456e-06
3.87916e-07
2.60334e-06
1.47955e-07
2.59913e-06
5.94418e-08
2.59489e-06
-6.61224e-08
2.58982e-06
-9.42902e-08
2.58158e-06
-9.3859e-08
2.57078e-06
-1.22692e-07
2.56615e-06
-3.27361e-08
-2.61897e-09
2.55588e-06
2.7078e-06
1.08746e-08
2.69908e-06
-3.60773e-07
2.69887e-06
9.93031e-08
2.71954e-06
4.94781e-07
2.72992e-06
2.96066e-07
2.71658e-06
-4.58568e-07
2.69828e-06
-5.4361e-07
2.68008e-06
-5.10675e-07
2.68721e-06
1.36203e-07
2.68895e-06
1.62e-07
2.7104e-06
3.93866e-07
2.71804e-06
3.80274e-07
2.72675e-06
1.39241e-07
2.72328e-06
6.29098e-08
2.71788e-06
-6.07205e-08
2.71372e-06
-9.01266e-08
2.70464e-06
-8.47749e-08
2.69388e-06
-1.11937e-07
2.6898e-06
-2.86534e-08
7.08433e-09
2.68009e-06
2.83725e-06
1.08903e-08
2.82838e-06
-3.51902e-07
2.82836e-06
9.93292e-08
2.84901e-06
4.74123e-07
2.85977e-06
2.85306e-07
2.84576e-06
-4.44552e-07
2.82799e-06
-5.25837e-07
2.80881e-06
-4.91497e-07
2.81682e-06
1.28193e-07
2.81791e-06
1.60907e-07
2.83989e-06
3.71885e-07
2.8476e-06
3.72562e-07
2.85589e-06
1.30957e-07
2.85347e-06
6.53275e-08
2.8467e-06
-5.395e-08
2.84333e-06
-8.67555e-08
2.83389e-06
-7.53317e-08
2.82271e-06
-1.00762e-07
2.8194e-06
-2.53441e-08
1.61143e-08
2.81037e-06
2.97291e-06
1.08799e-08
2.96383e-06
-3.42822e-07
2.9641e-06
9.90593e-08
2.98461e-06
4.53605e-07
2.99587e-06
2.74052e-07
2.98106e-06
-4.29742e-07
2.96391e-06
-5.08687e-07
2.94378e-06
-4.71374e-07
2.95262e-06
1.1936e-07
2.95323e-06
1.60298e-07
2.97545e-06
3.4966e-07
2.9835e-06
3.6451e-07
2.99101e-06
1.23453e-07
2.98987e-06
6.64609e-08
2.98174e-06
-4.58146e-08
2.97882e-06
-8.38373e-08
2.96957e-06
-6.60794e-08
2.9577e-06
-8.88949e-08
2.9551e-06
-2.27447e-08
2.42027e-08
2.94701e-06
3.11506e-06
1.08239e-08
3.1057e-06
-3.33457e-07
3.10639e-06
9.83641e-08
3.12662e-06
4.3338e-07
3.13848e-06
2.62189e-07
3.12279e-06
-4.14052e-07
3.10632e-06
-4.9222e-07
3.08534e-06
-4.50387e-07
3.09485e-06
1.09851e-07
3.09521e-06
1.59939e-07
3.11732e-06
3.27543e-07
3.12599e-06
3.5584e-07
3.13244e-06
1.17005e-07
3.13268e-06
6.62183e-08
3.12338e-06
-3.65155e-08
3.12044e-06
-8.08906e-08
3.11187e-06
-5.75124e-08
3.09931e-06
-7.63386e-08
3.09707e-06
-2.04999e-08
3.09881e-08
3.09028e-06
3.26403e-06
1.07005e-08
3.25429e-06
-3.23718e-07
3.25556e-06
9.70988e-08
3.27533e-06
4.13607e-07
3.28791e-06
2.4961e-07
3.27129e-06
-3.97434e-07
3.25552e-06
-4.76448e-07
3.23381e-06
-4.28678e-07
3.24378e-06
9.98781e-08
3.24418e-06
1.59542e-07
3.26582e-06
3.05907e-07
3.27535e-06
3.46312e-07
3.28056e-06
1.1179e-07
3.28212e-06
6.46624e-08
3.27199e-06
-2.63894e-08
3.26852e-06
-7.74228e-08
3.26097e-06
-4.99639e-08
3.24795e-06
-6.33091e-08
3.24559e-06
-1.81442e-08
3.61722e-08
3.24041e-06
3.42015e-06
1.04853e-08
3.40993e-06
-3.13505e-07
3.41192e-06
9.51135e-08
3.43109e-06
3.94438e-07
3.44446e-06
2.36237e-07
3.42692e-06
-3.79894e-07
3.41179e-06
-4.61317e-07
3.38957e-06
-4.06456e-07
3.39973e-06
8.97196e-08
3.40048e-06
1.58792e-07
3.42128e-06
2.85098e-07
3.43183e-06
3.35768e-07
3.43576e-06
1.0786e-07
3.43842e-06
6.19985e-08
3.42788e-06
-1.58426e-08
3.42348e-06
-7.30261e-08
3.41709e-06
-4.35722e-08
3.40392e-06
-5.01452e-08
3.40103e-06
-1.5256e-08
3.96253e-08
3.39758e-06
3.58374e-06
1.01542e-08
3.57296e-06
-3.02723e-07
3.5758e-06
9.22697e-08
3.59424e-06
3.76004e-07
3.60844e-06
2.2204e-07
3.59005e-06
-3.61512e-07
3.57544e-06
-4.46707e-07
3.55298e-06
-3.83997e-07
3.56301e-06
7.96974e-08
3.56441e-06
1.57385e-07
3.58411e-06
2.65397e-07
3.59571e-06
3.24173e-07
3.59843e-06
1.05139e-07
3.60189e-06
5.85355e-08
3.59135e-06
-5.29706e-09
3.58575e-06
-6.74286e-08
3.58048e-06
-3.83018e-08
3.56759e-06
-3.72553e-08
3.56381e-06
-1.14766e-08
4.1398e-08
3.56204e-06
3.75518e-06
9.68383e-09
3.74374e-06
-2.91288e-07
3.74755e-06
8.84566e-08
3.76517e-06
3.58392e-07
3.78015e-06
2.07057e-07
3.76108e-06
-3.42441e-07
3.74681e-06
-4.32441e-07
3.72445e-06
-3.61634e-07
3.73399e-06
7.01583e-08
3.73631e-06
1.55065e-07
3.75473e-06
2.46971e-07
3.76728e-06
3.11632e-07
3.76897e-06
1.03448e-07
3.77288e-06
5.46203e-08
3.76272e-06
4.86652e-09
3.75578e-06
-6.04948e-08
3.7515e-06
-3.40214e-08
3.73926e-06
-2.50098e-08
3.73437e-06
-6.58479e-09
4.17552e-08
3.73401e-06
3.93482e-06
9.055e-09
3.92267e-06
-2.79142e-07
3.92752e-06
8.36089e-08
3.94428e-06
3.41632e-07
3.95992e-06
1.91412e-07
3.94041e-06
-3.22927e-07
3.92625e-06
-4.1828e-07
3.90436e-06
-3.39744e-07
3.91309e-06
6.14282e-08
3.91647e-06
1.51687e-07
3.93359e-06
2.29848e-07
3.94686e-06
2.98361e-07
3.94773e-06
1.02573e-07
3.95178e-06
5.05712e-08
3.94229e-06
1.4358e-08
3.93404e-06
-5.22428e-08
3.9305e-06
-3.04836e-08
3.91928e-06
-1.37871e-08
3.91317e-06
-4.73463e-10
4.11703e-08
3.91375e-06
4.12305e-06
8.25502e-09
4.11017e-06
-2.66264e-07
4.11606e-06
7.77196e-08
4.13201e-06
3.25688e-07
4.1481e-06
1.75318e-07
4.12846e-06
-3.03288e-07
4.11413e-06
-4.03949e-07
4.09309e-06
-3.18709e-07
4.10077e-06
5.37564e-08
4.10521e-06
1.47247e-07
4.12112e-06
2.13932e-07
4.13485e-06
2.84639e-07
4.13511e-06
1.02313e-07
4.13903e-06
4.66466e-08
4.13041e-06
2.2974e-08
4.12096e-06
-4.27872e-08
4.11783e-06
-2.73515e-08
4.108e-06
-3.96279e-09
4.10075e-06
6.77743e-09
4.03351e-08
4.10159e-06
4.32028e-06
7.28086e-09
4.3067e-06
-2.52683e-07
4.31356e-06
7.08549e-08
4.3288e-06
3.10453e-07
4.34504e-06
1.59075e-07
4.32567e-06
-2.8392e-07
4.31086e-06
-3.89142e-07
4.29103e-06
-2.98876e-07
4.29753e-06
4.72544e-08
4.30288e-06
1.41898e-07
4.31776e-06
1.99056e-07
4.33167e-06
2.70725e-07
4.33145e-06
1.02529e-07
4.33509e-06
4.30127e-08
4.32745e-06
3.06113e-08
4.317e-06
-3.23326e-08
4.31387e-06
-2.42287e-08
4.30575e-06
4.16434e-09
4.29769e-06
1.4836e-08
4.00452e-08
4.29798e-06
4.52691e-06
6.14124e-09
4.5127e-06
-2.38474e-07
4.5204e-06
6.31566e-08
4.53512e-06
2.95738e-07
4.55114e-06
1.43055e-07
4.53246e-06
-2.65244e-07
4.5169e-06
-3.73584e-07
4.49852e-06
-2.80487e-07
4.5039e-06
4.18706e-08
4.50991e-06
1.35886e-07
4.5239e-06
1.85065e-07
4.53779e-06
2.56834e-07
4.53719e-06
1.03136e-07
4.54041e-06
3.97898e-08
4.53379e-06
3.72307e-08
4.52261e-06
-2.11556e-08
4.51913e-06
-2.07431e-08
4.51278e-06
1.05097e-08
4.50452e-06
2.30973e-08
4.09769e-08
4.50359e-06
4.7434e-06
4.85808e-09
4.72868e-06
-2.23759e-07
4.737e-06
5.48413e-08
4.75146e-06
2.81275e-07
4.76682e-06
1.27691e-07
4.7493e-06
-2.47718e-07
4.73276e-06
-3.57048e-07
4.71587e-06
-2.63594e-07
4.72038e-06
3.73608e-08
4.72676e-06
1.29508e-07
4.73999e-06
1.71837e-07
4.75368e-06
2.43143e-07
4.75274e-06
1.04072e-07
4.75541e-06
3.71169e-08
4.74987e-06
4.27689e-08
4.73826e-06
-9.54434e-09
4.73416e-06
-1.66419e-08
4.72941e-06
1.52653e-08
4.72167e-06
3.08378e-08
4.34211e-08
4.71922e-06
4.97019e-06
3.46621e-09
4.95514e-06
-2.08705e-07
4.96377e-06
4.62096e-08
4.97831e-06
2.6673e-07
4.99258e-06
1.13422e-07
4.97662e-06
-2.31757e-07
4.95902e-06
-3.39443e-07
4.9434e-06
-2.47977e-07
4.94745e-06
3.3307e-08
4.95393e-06
1.2303e-07
4.96644e-06
1.59327e-07
4.9798e-06
2.29787e-07
4.97857e-06
1.05302e-07
4.98053e-06
3.51485e-08
4.97614e-06
4.71633e-08
4.96441e-06
2.18939e-09
4.95957e-06
-1.18097e-08
4.95605e-06
1.87879e-08
4.94939e-06
3.74955e-08
4.71437e-08
4.94567e-06
5.20777e-06
2.01383e-09
5.1926e-06
-1.93533e-07
5.20115e-06
3.76511e-08
5.21619e-06
2.51699e-07
5.22897e-06
1.00634e-07
5.21482e-06
-2.17606e-07
5.19631e-06
-3.20932e-07
5.18154e-06
-2.33201e-07
5.18552e-06
2.93259e-08
5.19197e-06
1.16576e-07
5.20372e-06
1.47579e-07
5.21662e-06
2.16886e-07
5.21511e-06
1.06812e-07
5.21627e-06
3.39877e-08
5.21302e-06
5.04193e-08
5.20152e-06
1.36825e-08
5.19597e-06
-6.25389e-09
5.19326e-06
2.14897e-08
5.18793e-06
4.28351e-08
5.15311e-08
5.18354e-06
5.45664e-06
5.62271e-10
5.44161e-06
-1.78507e-07
5.44964e-06
2.96305e-08
5.46559e-06
2.35741e-07
5.47665e-06
8.9575e-08
5.46422e-06
-2.05172e-07
5.44533e-06
-3.02038e-07
5.43091e-06
-2.18791e-07
5.43497e-06
2.52738e-08
5.44141e-06
1.10135e-07
5.45227e-06
1.36712e-07
5.46458e-06
2.04577e-07
5.46284e-06
1.08561e-07
5.46313e-06
3.36927e-08
5.46103e-06
5.25171e-08
5.45011e-06
2.46032e-08
5.44388e-06
-2.41376e-11
5.4417e-06
2.36734e-08
5.4376e-06
4.69375e-08
5.59024e-08
5.43322e-06
5.71734e-06
-8.17069e-10
5.70277e-06
-1.63935e-07
5.70972e-06
2.26757e-08
5.72708e-06
2.18385e-07
5.73638e-06
8.02709e-08
5.72516e-06
-1.93954e-07
5.70658e-06
-2.8346e-07
5.69224e-06
-2.04444e-07
5.69622e-06
2.12894e-08
5.70265e-06
1.03703e-07
5.71251e-06
1.26851e-07
5.7241e-06
1.9299e-07
5.72223e-06
1.10436e-07
5.72169e-06
3.42265e-08
5.72074e-06
5.34646e-08
5.71071e-06
3.46341e-08
5.70384e-06
6.84937e-09
5.702e-06
2.55121e-08
5.69892e-06
5.0022e-08
5.97913e-08
5.69503e-06
5.99042e-06
-2.0482e-09
5.97664e-06
-1.50149e-07
5.98202e-06
1.72982e-08
6.00108e-06
1.9932e-07
6.00896e-06
7.23911e-08
5.99817e-06
-1.83161e-07
5.98044e-06
-2.65735e-07
5.96611e-06
-1.90107e-07
5.9696e-06
1.77989e-08
5.97589e-06
9.74089e-08
5.98467e-06
1.18068e-07
5.99561e-06
1.82053e-07
5.99386e-06
1.12187e-07
5.99262e-06
3.54627e-08
5.99278e-06
5.33054e-08
5.98387e-06
4.35475e-08
5.9764e-06
1.43144e-08
5.97475e-06
2.7162e-08
5.97254e-06
5.22321e-08
6.30368e-08
5.9693e-06
6.2765e-06
-3.0624e-09
6.26382e-06
-1.3747e-07
6.26736e-06
1.37567e-08
6.28783e-06
1.7885e-07
6.29511e-06
6.51201e-08
6.28397e-06
-1.7203e-07
6.2672e-06
-2.48957e-07
6.25288e-06
-1.75791e-07
6.25518e-06
1.54985e-08
6.26099e-06
9.15978e-08
6.26901e-06
1.10053e-07
6.27977e-06
1.71291e-07
6.27847e-06
1.13489e-07
6.27664e-06
3.72912e-08
6.27769e-06
5.22566e-08
6.27014e-06
5.10919e-08
6.26218e-06
2.22801e-08
6.2605e-06
2.88396e-08
6.25915e-06
5.35809e-08
6.56583e-08
6.25653e-06
6.57621e-06
-3.80685e-09
6.56494e-06
-1.26194e-07
6.56676e-06
1.19383e-08
6.58772e-06
1.57887e-07
6.59535e-06
5.74865e-08
6.58351e-06
-1.60184e-07
6.56722e-06
-2.32669e-07
6.55284e-06
-1.61411e-07
6.55373e-06
1.4609e-08
6.55897e-06
8.63601e-08
6.56661e-06
1.02409e-07
6.57744e-06
1.60464e-07
6.57681e-06
1.14113e-07
6.57441e-06
3.96904e-08
6.57605e-06
5.06222e-08
6.57011e-06
5.70296e-08
6.56185e-06
3.0545e-08
6.55984e-06
3.0849e-08
6.55936e-06
5.40532e-08
6.76662e-08
6.55736e-06
6.89024e-06
-4.25204e-09
6.8806e-06
-1.16563e-07
6.88099e-06
1.15507e-08
6.90145e-06
1.37429e-07
6.91009e-06
4.88441e-08
6.89774e-06
-1.47829e-07
6.88132e-06
-2.16256e-07
6.86713e-06
-1.47216e-07
6.86697e-06
1.47659e-08
6.87148e-06
8.18465e-08
6.87869e-06
9.51997e-08
6.88952e-06
1.49639e-07
6.88961e-06
1.14019e-07
6.88665e-06
4.26579e-08
6.88855e-06
4.87227e-08
6.88429e-06
6.12855e-08
6.87609e-06
3.87496e-08
6.87346e-06
3.34709e-08
6.87375e-06
5.37657e-08
6.89494e-08
6.87247e-06
7.21928e-06
-4.39618e-09
7.21138e-06
-1.08663e-07
7.21078e-06
1.21554e-08
7.22987e-06
1.18331e-07
7.23967e-06
3.90476e-08
7.22743e-06
-1.35584e-07
7.2106e-06
-1.9943e-07
7.197e-06
-1.3362e-07
7.1959e-06
1.5867e-08
7.19934e-06
7.84093e-08
7.20597e-06
8.85739e-08
7.21674e-06
1.38867e-07
7.21753e-06
1.13225e-07
7.2141e-06
4.60942e-08
7.21587e-06
4.6948e-08
7.2133e-06
6.38591e-08
7.20557e-06
4.64754e-08
7.20219e-06
3.68518e-08
7.20293e-06
5.30276e-08
6.93415e-08
7.20254e-06
7.5641e-06
-4.26603e-09
7.55776e-06
-1.02331e-07
7.55681e-06
1.31124e-08
7.57385e-06
1.01285e-07
7.58455e-06
2.83484e-08
7.57325e-06
-1.24285e-07
7.55615e-06
-1.82326e-07
7.54316e-06
-1.20629e-07
7.5411e-06
1.79276e-08
7.54323e-06
7.62753e-08
7.54909e-06
8.27186e-08
7.55974e-06
1.28218e-07
7.56127e-06
1.11686e-07
7.55749e-06
4.98811e-08
7.55887e-06
4.55701e-08
7.55775e-06
6.49694e-08
7.55092e-06
5.33134e-08
7.54685e-06
4.09225e-08
7.54761e-06
5.22641e-08
6.8761e-08
7.54819e-06
7.92546e-06
-3.91433e-09
7.92028e-06
-9.71551e-08
7.91978e-06
1.36116e-08
7.93427e-06
8.68034e-08
7.9456e-06
1.70113e-08
7.93565e-06
-1.14333e-07
7.91895e-06
-1.65623e-07
7.90641e-06
-1.08088e-07
7.90294e-06
2.13901e-08
7.90385e-06
7.53644e-08
7.90885e-06
7.77249e-08
7.91924e-06
1.17826e-07
7.92153e-06
1.094e-07
7.91757e-06
5.38337e-08
7.91836e-06
4.4785e-08
7.91845e-06
6.48821e-08
7.91276e-06
5.89973e-08
7.90825e-06
4.54313e-08
7.90867e-06
5.18477e-08
6.73406e-08
7.91009e-06
8.30418e-06
-3.41185e-09
8.29968e-06
-9.26582e-08
8.30027e-06
1.3024e-08
8.31195e-06
7.51267e-08
8.32365e-06
5.3043e-09
8.31503e-06
-1.05711e-07
8.29906e-06
-1.49648e-07
8.28633e-06
-9.5365e-08
8.28172e-06
2.60053e-08
8.28206e-06
7.5021e-08
8.28619e-06
7.35927e-08
8.296e-06
1.08021e-07
8.29904e-06
1.06363e-07
8.29514e-06
5.77317e-08
8.29521e-06
4.4717e-08
8.29619e-06
6.38985e-08
8.29181e-06
6.33746e-08
8.28717e-06
5.00696e-08
8.28704e-06
5.19808e-08
6.53961e-08
8.28899e-06
8.70107e-06
-2.81948e-09
8.69704e-06
-8.86263e-08
8.69852e-06
1.15394e-08
8.70769e-06
6.5961e-08
8.71866e-06
-5.66693e-09
8.71172e-06
-9.87696e-08
8.69455e-06
-1.32483e-07
8.68051e-06
-8.13206e-08
8.67801e-06
2.85075e-08
8.67878e-06
7.42432e-08
8.68203e-06
7.03514e-08
8.69088e-06
9.91649e-08
8.69457e-06
1.02677e-07
8.691e-06
6.13e-08
8.69032e-06
4.53991e-08
8.69184e-06
6.23729e-08
8.68885e-06
6.63682e-08
8.68437e-06
5.45479e-08
8.68365e-06
5.26983e-08
6.32896e-08
8.68576e-06
9.117e-06
-2.20067e-09
9.11334e-06
-8.49709e-08
9.11521e-06
9.67594e-09
9.12202e-06
5.91473e-08
9.12639e-06
-1.00394e-08
9.11731e-06
-8.96817e-08
9.10085e-06
-1.1603e-07
9.09199e-06
-7.24541e-08
9.09314e-06
2.73502e-08
9.09489e-06
7.2494e-08
9.09718e-06
6.80668e-08
9.10487e-06
9.14705e-08
9.10899e-06
9.85654e-08
9.10597e-06
6.43163e-08
9.10462e-06
4.67459e-08
9.10631e-06
6.06811e-08
9.10467e-06
6.80096e-08
9.10064e-06
5.85776e-08
9.09941e-06
5.3929e-08
6.13143e-08
9.10139e-06
9.55291e-06
-1.64578e-09
9.54913e-06
-8.11923e-08
9.55161e-06
7.18903e-09
9.556e-06
5.4757e-08
9.55748e-06
-1.15114e-08
9.5499e-06
-8.21042e-08
9.53514e-06
-1.0127e-07
9.52612e-06
-6.34399e-08
9.52814e-06
2.53289e-08
9.53076e-06
6.9875e-08
9.53242e-06
6.64096e-08
9.53896e-06
8.49348e-08
9.54323e-06
9.42949e-08
9.54089e-06
6.66566e-08
9.53909e-06
4.85458e-08
9.54066e-06
5.91081e-08
9.5402e-06
6.84711e-08
9.53689e-06
6.18828e-08
9.5353e-06
5.55199e-08
5.968e-08
9.53694e-06
1.00097e-05
-1.23367e-09
1.00054e-05
-7.6872e-08
1.00087e-05
3.86506e-09
1.00121e-05
5.14288e-08
1.00122e-05
-1.16561e-08
1.00053e-05
-7.51918e-08
9.9917e-06
-8.76866e-08
9.98224e-06
-5.39723e-08
9.984e-06
2.35633e-08
9.98719e-06
6.66909e-08
9.98864e-06
6.49508e-08
9.99412e-06
7.94634e-08
9.99834e-06
9.00739e-08
9.99664e-06
6.83506e-08
9.99465e-06
5.05353e-08
9.99594e-06
5.78199e-08
9.99639e-06
6.80203e-08
9.994e-06
6.42736e-08
9.99229e-06
5.72339e-08
5.85239e-08
9.99344e-06
1.04884e-05
-9.99359e-10
1.04835e-05
-7.19679e-08
1.04875e-05
-1.41789e-10
1.04907e-05
4.82425e-08
1.04892e-05
-1.01537e-08
1.04825e-05
-6.85306e-08
1.04704e-05
-7.5536e-08
1.04608e-05
-4.44097e-08
1.04618e-05
2.26187e-08
1.04652e-05
6.32111e-08
1.04668e-05
6.3441e-08
1.04713e-05
7.48832e-08
1.04754e-05
8.60117e-08
1.04743e-05
6.94726e-08
1.04723e-05
5.25325e-08
1.04732e-05
5.68822e-08
1.04743e-05
6.69288e-08
1.04729e-05
6.57076e-08
1.04713e-05
5.87968e-08
5.78652e-08
1.0472e-05
1.099e-05
-9.64471e-10
1.09845e-05
-6.64583e-08
1.0989e-05
-4.65724e-09
1.09923e-05
4.48858e-08
1.09894e-05
-7.16238e-09
1.09826e-05
-6.17673e-08
1.09719e-05
-6.48719e-08
1.09627e-05
-3.51558e-08
1.09627e-05
2.26299e-08
1.09661e-05
5.97834e-08
1.09677e-05
6.18074e-08
1.09716e-05
7.10128e-08
1.09754e-05
8.216e-08
1.09748e-05
7.00696e-08
1.0973e-05
5.44045e-08
1.09736e-05
5.62905e-08
1.09751e-05
6.54292e-08
1.09745e-05
6.6258e-08
1.09733e-05
5.99923e-08
5.75664e-08
1.09736e-05
1.15155e-05
-1.12146e-09
1.15095e-05
-6.04517e-08
1.1514e-05
-9.18221e-09
1.15179e-05
4.10742e-08
1.15138e-05
-3.07304e-09
1.15066e-05
-5.46133e-08
1.14973e-05
-5.55481e-08
1.14887e-05
-2.66104e-08
1.14879e-05
2.35066e-08
1.14909e-05
5.67478e-08
1.14926e-05
6.00808e-08
1.1496e-05
6.7649e-08
1.14996e-05
7.85165e-08
1.14995e-05
7.02067e-08
1.14978e-05
5.60563e-08
1.14981e-05
5.59977e-08
1.14998e-05
6.37391e-08
1.15e-05
6.6045e-08
1.14993e-05
6.07186e-08
5.73968e-08
1.14995e-05
1.20661e-05
-1.41885e-09
1.20597e-05
-5.40374e-08
1.20637e-05
-1.32178e-08
1.20682e-05
3.66417e-08
1.20635e-05
1.60142e-09
1.20558e-05
-4.68736e-08
1.20475e-05
-4.73086e-08
1.204e-05
-1.91073e-08
1.20385e-05
2.49908e-08
1.20409e-05
5.43349e-08
1.20427e-05
5.8361e-08
1.20456e-05
6.47152e-08
1.20491e-05
7.5036e-08
1.20493e-05
6.99442e-08
1.20479e-05
5.74475e-08
1.2048e-05
5.59004e-08
1.20498e-05
6.20166e-08
1.20506e-05
6.52012e-08
1.20504e-05
6.09459e-08
5.71545e-08
1.20506e-05
1.26429e-05
-1.7748e-09
1.26362e-05
-4.73036e-08
1.26391e-05
-1.61088e-08
1.26443e-05
3.1468e-08
1.26397e-05
6.20539e-09
1.26314e-05
-3.85816e-08
1.26239e-05
-3.98087e-08
1.26176e-05
-1.27907e-08
1.26158e-05
2.67524e-08
1.26175e-05
5.26247e-08
1.2619e-05
5.68329e-08
1.26216e-05
6.21475e-08
1.2625e-05
7.16883e-08
1.26256e-05
6.92879e-08
1.26245e-05
5.85272e-08
1.26245e-05
5.59175e-08
1.26262e-05
6.0357e-08
1.26275e-05
6.38844e-08
1.26277e-05
6.06979e-08
5.67281e-08
1.26282e-05
1.32472e-05
-2.08813e-09
1.32403e-05
-4.03854e-08
1.32416e-05
-1.74157e-08
1.32474e-05
2.56963e-08
1.32435e-05
1.00777e-08
1.32349e-05
-2.98983e-08
1.32277e-05
-3.26536e-08
1.32225e-05
-7.61468e-09
1.32208e-05
2.8457e-08
1.32219e-05
5.15137e-08
1.32231e-05
5.56589e-08
1.32253e-05
5.99219e-08
1.32285e-05
6.85224e-08
1.32295e-05
6.82331e-08
1.32288e-05
5.92496e-08
1.32288e-05
5.59831e-08
1.32303e-05
5.88175e-08
1.3232e-05
6.22239e-08
1.32326e-05
6.00248e-08
5.60756e-08
1.32333e-05
1.38803e-05
-2.25975e-09
1.38737e-05
-3.37288e-08
1.38733e-05
-1.70247e-08
1.38791e-05
1.98653e-08
1.38763e-05
1.2858e-08
1.38676e-05
-2.11271e-08
1.38604e-05
-2.55151e-08
1.38561e-05
-3.28621e-09
1.38548e-05
2.98055e-08
1.38554e-05
5.08255e-08
1.38562e-05
5.48563e-08
1.38581e-05
5.80915e-08
1.3861e-05
6.55751e-08
1.38624e-05
6.68443e-08
1.38621e-05
5.95726e-08
1.38621e-05
5.59924e-08
1.38635e-05
5.7433e-08
1.38654e-05
6.03229e-08
1.38664e-05
5.89589e-08
5.52143e-08
1.38673e-05
1.45436e-05
-2.20754e-09
1.45374e-05
-2.75418e-08
1.45356e-05
-1.52317e-08
1.4541e-05
1.45136e-08
1.45394e-05
1.44632e-08
1.45309e-05
-1.2647e-08
1.45236e-05
-1.81937e-08
1.45197e-05
5.46718e-10
1.45188e-05
3.07102e-08
1.45194e-05
5.0301e-08
1.45199e-05
5.4349e-08
1.45212e-05
5.67412e-08
1.45239e-05
6.28566e-08
1.45256e-05
6.52021e-08
1.45257e-05
5.95027e-08
1.45258e-05
5.58268e-08
1.45271e-05
5.61768e-08
1.45291e-05
5.83232e-08
1.45305e-05
5.75094e-08
5.41852e-08
1.45316e-05
1.52386e-05
-1.89339e-09
1.52332e-05
-2.21663e-08
1.52303e-05
-1.23516e-08
1.52346e-05
1.02649e-08
1.5234e-05
1.50137e-08
1.52262e-05
-4.83451e-09
1.52187e-05
-1.06891e-08
1.5215e-05
4.26432e-09
1.52145e-05
3.12334e-08
1.52151e-05
4.97023e-08
1.52154e-05
5.40389e-08
1.52163e-05
5.57929e-08
1.52187e-05
6.04751e-08
1.52205e-05
6.33616e-08
1.5221e-05
5.90695e-08
1.52213e-05
5.54586e-08
1.52226e-05
5.49504e-08
1.52245e-05
5.63582e-08
1.52263e-05
5.57217e-08
5.29711e-08
1.52275e-05
1.59668e-05
-1.31624e-09
1.59623e-05
-1.77284e-08
1.59587e-05
-8.78165e-09
1.59615e-05
7.50906e-09
1.59616e-05
1.48753e-08
1.59549e-05
1.93845e-09
1.59473e-05
-3.15182e-09
1.59434e-05
8.16014e-09
1.59431e-05
3.15407e-08
1.59439e-05
4.89395e-08
1.59442e-05
5.37598e-08
1.59448e-05
5.5135e-08
1.59468e-05
5.84922e-08
1.59487e-05
6.14232e-08
1.59495e-05
5.82883e-08
1.59501e-05
5.49014e-08
1.59514e-05
5.36726e-08
1.59533e-05
5.44385e-08
1.59553e-05
5.37253e-08
5.1491e-08
1.59568e-05
1.67298e-05
-5.0796e-10
1.67261e-05
-1.40333e-08
1.67223e-05
-5.00929e-09
1.67235e-05
6.29071e-09
1.67239e-05
1.45398e-08
1.67183e-05
7.49572e-09
1.67111e-05
4.11483e-09
1.67069e-05
1.23491e-08
1.67065e-05
3.19205e-08
1.67074e-05
4.80284e-08
1.67078e-05
5.33226e-08
1.67083e-05
5.47071e-08
1.67099e-05
5.6833e-08
1.67118e-05
5.95118e-08
1.67129e-05
5.72158e-08
1.67137e-05
5.41221e-08
1.6715e-05
5.23457e-08
1.67169e-05
5.25062e-08
1.6719e-05
5.16455e-08
4.97209e-08
1.67208e-05
1.75294e-05
4.657e-10
1.75263e-05
-1.09683e-08
1.75227e-05
-1.34876e-09
1.75224e-05
6.50785e-09
1.75225e-05
1.44809e-08
1.75181e-05
1.19131e-08
1.75114e-05
1.07511e-08
1.7507e-05
1.67863e-08
1.75063e-05
3.26457e-08
1.75073e-05
4.70581e-08
1.75079e-05
5.26813e-08
1.75083e-05
5.43153e-08
1.75096e-05
5.54866e-08
1.75115e-05
5.76449e-08
1.75128e-05
5.59505e-08
1.75138e-05
5.31244e-08
1.75151e-05
5.09624e-08
1.75171e-05
5.05634e-08
1.75192e-05
4.95094e-08
4.77405e-08
1.75212e-05
1.83673e-05
1.53202e-09
1.83646e-05
-8.27294e-09
1.83613e-05
1.95114e-09
1.83599e-05
7.87036e-09
1.83594e-05
1.50058e-08
1.83559e-05
1.54279e-08
1.83501e-05
1.65338e-08
1.83456e-05
2.13169e-08
1.83444e-05
3.38074e-08
1.83452e-05
4.62271e-08
1.8346e-05
5.18954e-08
1.83466e-05
5.37823e-08
1.83477e-05
5.43916e-08
1.83494e-05
5.58567e-08
1.83509e-05
5.45102e-08
1.8352e-05
5.19745e-08
1.83535e-05
4.94731e-08
1.83555e-05
4.86313e-08
1.83576e-05
4.73176e-08
4.5627e-08
1.83598e-05
1.92453e-05
2.61408e-09
1.92428e-05
-5.73473e-09
1.92399e-05
4.83632e-09
1.92378e-05
9.95613e-09
1.92365e-05
1.63052e-08
1.92336e-05
1.83575e-08
1.92287e-05
2.1402e-08