/*--------------------------------*- C++ -*----------------------------------*\
| =========                 |                                                 |
| \\      /  F ield         | OpenFOAM: The Open Source CFD Toolbox           |
|  \\    /   O peration     | Version:  3.0.1                                 |
|   \\  /    A nd           | Web:      www.OpenFOAM.org                      |
|    \\/     M anipulation  |                                                 |
\*---------------------------------------------------------------------------*/
FoamFile
{
    version     2.0;
    format      ascii;
    class       volVectorField;
    location    "2.4";
    object      U;
}
// * * * * * * * * * * * * * * * * * * * * * * * * * * * * * * * * * * * * * //

dimensions      [0 1 -1 0 0 0 0];

internalField   nonuniform List<vector> 
9600
(
(0.841647 -0.000571011 0)
(1.14101 -0.0037341 0)
(0.894899 0.00306719 0)
(1.16555 0.00740596 0)
(0.810536 0.00116531 0)
(1.07279 -0.0070962 0)
(0.919468 -0.0089868 0)
(1.12214 -0.0124741 0)
(0.892027 0.00579057 0)
(1.15559 0.0028092 0)
(0.852003 0.0101487 0)
(1.11769 0.0130369 0)
(0.85616 0.00323689 0)
(1.07148 0.00162445 0)
(0.882031 -0.00487283 0)
(1.06204 -0.00411056 0)
(0.889592 -0.00602829 0)
(1.07113 -0.0119115 0)
(0.871087 -0.00152891 0)
(1.08643 -0.0183048 0)
(0.852565 -0.000525182 0)
(1.12958 -0.0039423 0)
(0.903245 0.00261565 0)
(1.15248 0.00822345 0)
(0.836643 0.00197432 0)
(1.05581 -0.00801762 0)
(0.930864 -0.00988165 0)
(1.10695 -0.0119273 0)
(0.904937 0.00512551 0)
(1.13518 0.00364097 0)
(0.876796 0.0104305 0)
(1.08379 0.0131918 0)
(0.902921 0.00400237 0)
(1.02867 0.00119543 0)
(0.936798 -0.00466923 0)
(1.00917 -0.00439949 0)
(0.959772 -0.00599407 0)
(0.997783 -0.0121274 0)
(0.968291 -0.000993948 0)
(0.980612 -0.0197187 0)
(0.873124 -0.000480127 0)
(1.10811 -0.00417718 0)
(0.920112 0.00229895 0)
(1.12769 0.00899505 0)
(0.877112 0.0026236 0)
(1.03244 -0.00876252 0)
(0.949221 -0.0105317 0)
(1.08167 -0.0115121 0)
(0.931019 0.00456855 0)
(1.09982 0.00424414 0)
(0.918572 0.0109969 0)
(1.03813 0.0130124 0)
(0.950429 0.0047637 0)
(0.995421 0.000654933 0)
(0.970047 -0.00439014 0)
(0.986531 -0.00484543 0)
(0.981506 -0.00594038 0)
(0.985147 -0.0119163 0)
(0.98222 -0.00167505 0)
(0.985059 -0.0158367 0)
(0.900081 -0.00041441 0)
(1.08041 -0.00439003 0)
(0.941398 0.00209123 0)
(1.09674 0.00940281 0)
(0.91993 0.00331098 0)
(1.01092 -0.00925142 0)
(0.967847 -0.011097 0)
(1.05401 -0.0113194 0)
(0.95988 0.00434012 0)
(1.06365 0.0044833 0)
(0.956382 0.011759 0)
(1.00744 0.0126443 0)
(0.97813 0.00529373 0)
(0.986651 0.00043137 0)
(0.981812 -0.00429439 0)
(0.985973 -0.00508608 0)
(0.986316 -0.00585682 0)
(0.987249 -0.0120575 0)
(0.984859 -0.00151811 0)
(0.987449 -0.0144259 0)
(0.928735 -0.000321436 0)
(1.05219 -0.00459015 0)
(0.961648 0.0019002 0)
(1.06622 0.00958831 0)
(0.956126 0.00398471 0)
(0.997292 -0.00955294 0)
(0.981118 -0.0115934 0)
(1.031 -0.0112603 0)
(0.981541 0.00425175 0)
(1.03687 0.00456529 0)
(0.98008 0.0124497 0)
(0.996164 0.0124284 0)
(0.991508 0.00555216 0)
(0.990075 0.000395583 0)
(0.98809 -0.00422933 0)
(0.989353 -0.00524962 0)
(0.990737 -0.0058104 0)
(0.988997 -0.0119884 0)
(0.988055 -0.00156049 0)
(0.988007 -0.0133219 0)
(0.954483 -0.000216425 0)
(1.02865 -0.0047604 0)
(0.976871 0.00174338 0)
(1.04132 0.00963497 0)
(0.981818 0.00453848 0)
(0.992753 -0.00966507 0)
(0.988104 -0.0119633 0)
(1.01499 -0.0112977 0)
(0.993028 0.00419151 0)
(1.02099 0.00463015 0)
(0.991589 0.0129172 0)
(0.995764 0.0123392 0)
(0.999021 0.0056298 0)
(0.995782 0.000423986 0)
(0.993673 -0.00410863 0)
(0.992766 -0.0053889 0)
(0.994394 -0.00572223 0)
(0.990893 -0.0117968 0)
(0.989982 -0.00172177 0)
(0.989015 -0.0120744 0)
(0.974357 -0.000117418 0)
(1.01243 -0.00487028 0)
(0.985896 0.00161908 0)
(1.02407 0.00956871 0)
(0.997649 0.00492896 0)
(0.994543 -0.00960819 0)
(0.991209 -0.0121849 0)
(1.00464 -0.0113883 0)
(0.996679 0.00412751 0)
(1.01254 0.00467789 0)
(0.996421 0.0131651 0)
(0.998698 0.0122559 0)
(1.00431 0.00563948 0)
(1.0008 0.000478444 0)
(0.998328 -0.00394571 0)
(0.996063 -0.00544858 0)
(0.996899 -0.00561558 0)
(0.992785 -0.0115071 0)
(0.990987 -0.00191245 0)
(0.989783 -0.0107335 0)
(0.987623 -3.68829e-05 0)
(1.00326 -0.00490993 0)
(0.989963 0.00150987 0)
(1.01361 0.00941794 0)
(1.00633 0.00516327 0)
(0.998929 -0.00943814 0)
(0.993036 -0.0122576 0)
(0.997844 -0.011477 0)
(0.996088 0.00403475 0)
(1.00764 0.00467683 0)
(0.998413 0.0132472 0)
(1.00173 0.0121357 0)
(1.00814 0.00562872 0)
(1.00465 0.000541651 0)
(1.00181 -0.00374592 0)
(0.998882 -0.00542891 0)
(0.998751 -0.00550308 0)
(0.994321 -0.0111142 0)
(0.991692 -0.00208392 0)
(0.990203 -0.00938177 0)
(0.995317 2.04161e-05 0)
(0.999078 -0.00488986 0)
(0.991272 0.00141263 0)
(1.00775 0.00920847 0)
(1.01056 0.00527085 0)
(1.00328 -0.00921152 0)
(0.994825 -0.012194 0)
(0.993339 -0.0115228 0)
(0.993926 0.00390957 0)
(1.00404 0.00461693 0)
(0.999121 0.0132003 0)
(1.00389 0.0119791 0)
(1.0106 0.00559885 0)
(1.00725 0.000618838 0)
(1.00418 -0.00352247 0)
(1.00097 -0.00535276 0)
(1.00015 -0.00538121 0)
(0.995504 -0.0106202 0)
(0.992269 -0.00222989 0)
(0.990498 -0.00807233 0)
(0.999222 5.70002e-05 0)
(0.997647 -0.00482869 0)
(0.991639 0.00133155 0)
(1.00446 0.00896014 0)
(1.01222 0.00528686 0)
(1.00647 -0.00896751 0)
(0.996677 -0.01202 0)
(0.990543 -0.0115054 0)
(0.991652 0.00376993 0)
(1.00095 0.00450479 0)
(0.998993 0.013046 0)
(1.00498 0.011789 0)
(1.01183 0.00554678 0)
(1.00866 0.00071144 0)
(1.0056 -0.00330418 0)
(1.00231 -0.00522734 0)
(1.00109 -0.00524936 0)
(0.996389 -0.0100475 0)
(0.992743 -0.00235657 0)
(0.990783 -0.00682645 0)
(1.00098 7.90613e-05 0)
(0.997394 -0.00474501 0)
(0.991973 0.00126918 0)
(1.00246 0.00868979 0)
(1.01245 0.00524251 0)
(1.00834 -0.00872855 0)
(0.998317 -0.0117697 0)
(0.989074 -0.011422 0)
(0.989889 0.0036338 0)
(0.998347 0.00435893 0)
(0.998293 0.0128045 0)
(1.00512 0.0115703 0)
(1.01209 0.00547546 0)
(1.00912 0.000814855 0)
(1.00625 -0.00311058 0)
(1.00304 -0.00504986 0)
(1.00162 -0.00512365 0)
(0.997009 -0.00942518 0)
(0.993132 -0.00245702 0)
(0.991077 -0.00566099 0)
(1.00171 9.22033e-05 0)
(0.997525 -0.00465196 0)
(0.992468 0.00122424 0)
(1.0011 0.0084126 0)
(1.01196 0.00516046 0)
(1.0092 -0.00850409 0)
(0.999557 -0.0114744 0)
(0.988535 -0.0112825 0)
(0.988784 0.00351099 0)
(0.996401 0.00420074 0)
(0.99735 0.0124968 0)
(1.00462 0.0113353 0)
(1.01171 0.00538034 0)
(1.00897 0.000928677 0)
(1.00637 -0.00294519 0)
(1.00332 -0.00483077 0)
(1.00184 -0.00501383 0)
(0.997405 -0.00877963 0)
(0.993455 -0.00250543 0)
(0.991372 -0.0046012 0)
(1.002 0.00010003 0)
(0.997728 -0.00455687 0)
(0.993031 0.001195 0)
(1.00013 0.00813791 0)
(1.01121 0.00505394 0)
(1.00942 -0.00829536 0)
(1.00038 -0.0111563 0)
(0.988548 -0.0110985 0)
(0.988242 0.00340442 0)
(0.995131 0.00404673 0)
(0.996457 0.0121425 0)
(1.00383 0.0110957 0)
(1.01106 0.00525502 0)
(1.00851 0.00104993 0)
(1.0062 -0.00280385 0)
(1.00333 -0.00459403 0)
(1.00185 -0.00490299 0)
(0.997639 -0.00813435 0)
(0.993731 -0.00248187 0)
(0.991659 -0.00366486 0)
(1.00212 0.000104476 0)
(0.9979 -0.00446225 0)
(0.99355 0.00117888 0)
(0.999452 0.00786817 0)
(1.01046 0.00493322 0)
(1.00928 -0.00809908 0)
(1.00088 -0.0108292 0)
(0.988822 -0.01088 0)
(0.988088 0.00330918 0)
(0.994412 0.00390738 0)
(0.995782 0.0117569 0)
(1.00301 0.0108566 0)
(1.01036 0.00509885 0)
(1.00797 0.00118219 0)
(1.00591 -0.00268888 0)
(1.0032 -0.00434334 0)
(1.00175 -0.00477808 0)
(0.997775 -0.0075116 0)
(0.993979 -0.00238607 0)
(0.991936 -0.00284522 0)
(1.00218 0.000106797 0)
(0.998016 -0.00436849 0)
(0.993984 0.00117235 0)
(0.999023 0.00760237 0)
(1.00984 0.00480462 0)
(1.00898 -0.00791053 0)
(1.00114 -0.0105009 0)
(0.989178 -0.0106349 0)
(0.988168 0.00321803 0)
(0.99407 0.00378854 0)
(0.995369 0.0113445 0)
(1.0023 0.0106264 0)
(1.00975 0.00490944 0)
(1.00746 0.00132607 0)
(1.00562 -0.00259772 0)
(1.00305 -0.00408437 0)
(1.00163 -0.00462069 0)
(0.997869 -0.00693816 0)
(0.994222 -0.00222821 0)
(0.992207 -0.00212418 0)
(1.0022 0.00010792 0)
(0.998076 -0.00427528 0)
(0.99434 0.001172 0)
(0.998783 0.00733812 0)
(1.00936 0.00467134 0)
(1.00864 -0.00772487 0)
(1.00127 -0.0101748 0)
(0.98953 -0.0103686 0)
(0.98838 0.00312477 0)
(0.993963 0.00369008 0)
(0.995191 0.0109089 0)
(1.00174 0.0104086 0)
(1.00926 0.00469418 0)
(1.00703 0.00146814 0)
(1.00537 -0.00251235 0)
(1.0029 -0.00383833 0)
(1.0015 -0.00440959 0)
(0.997957 -0.00642063 0)
(0.994478 -0.00202729 0)
(0.992478 -0.00148903 0)
(1.00221 0.000108481 0)
(0.9981 -0.00418212 0)
(0.994637 0.00117496 0)
(0.998672 0.00707318 0)
(1.009 0.00453484 0)
(1.00831 -0.00753769 0)
(1.00132 -0.00985291 0)
(0.989854 -0.0100828 0)
(0.988666 0.00302214 0)
(0.993999 0.00361089 0)
(0.995191 0.0104522 0)
(1.00134 0.0102007 0)
(1.00888 0.00446472 0)
(1.00669 0.00160996 0)
(1.00515 -0.00241537 0)
(1.00279 -0.00361823 0)
(1.0014 -0.00414082 0)
(0.998055 -0.00594214 0)
(0.994754 -0.00180369 0)
(0.992755 -0.000915791 0)
(1.00221 0.000108903 0)
(0.998112 -0.00408853 0)
(0.994892 0.00117904 0)
(0.998645 0.00680674 0)
(1.00869 0.00439497 0)
(1.00799 -0.0073452 0)
(1.00133 -0.00953657 0)
(0.990157 -0.00977793 0)
(0.98899 0.00290432 0)
(0.994126 0.00355224 0)
(0.995308 0.00997156 0)
(1.00105 0.0100027 0)
(1.00857 0.0042203 0)
(1.0064 0.00175141 0)
(1.00495 -0.00228911 0)
(1.0027 -0.00343815 0)
(1.0013 -0.00381793 0)
(0.998168 -0.00548472 0)
(0.995051 -0.00158462 0)
(0.99304 -0.000374583 0)
(1.00218 0.00010921 0)
(0.998134 -0.00399378 0)
(0.995111 0.00118292 0)
(0.99867 0.00653889 0)
(1.00841 0.00425145 0)
(1.00771 -0.00714547 0)
(1.00131 -0.00922692 0)
(0.99046 -0.00945456 0)
(0.989331 0.00276949 0)
(0.99431 0.00351036 0)
(0.995483 0.00947396 0)
(1.00083 0.00980801 0)
(1.00828 0.00396807 0)
(1.00616 0.00187084 0)
(1.00475 -0.00212153 0)
(1.00264 -0.00329898 0)
(1.00122 -0.00345837 0)
(0.998291 -0.00503197 0)
(0.995365 -0.00139045 0)
(0.993335 0.000132329 0)
(1.00211 0.00010951 0)
(0.99818 -0.00389808 0)
(0.995295 0.00118524 0)
(0.998735 0.00627003 0)
(1.00812 0.00410328 0)
(1.00745 -0.00693589 0)
(1.00126 -0.00892618 0)
(0.990778 -0.00911311 0)
(0.989673 0.00261724 0)
(0.994532 0.0034837 0)
(0.995679 0.00895913 0)
(1.00066 0.00961539 0)
(1.008 0.00373431 0)
(1.00594 0.00196104 0)
(1.00453 -0.001905 0)
(1.00259 -0.0031864 0)
(1.00113 -0.00308481 0)
(0.99842 -0.00456302 0)
(0.99569 -0.00123199 0)
(0.993642 0.000609885 0)
(1.00202 0.000109829 0)
(0.998258 -0.00380134 0)
(0.995445 0.00118519 0)
(0.998831 0.0060019 0)
(1.00782 0.00394827 0)
(1.00721 -0.00671338 0)
(1.0012 -0.00863643 0)
(0.99112 -0.00875333 0)
(0.990006 0.00244661 0)
(0.994778 0.00346955 0)
(0.995871 0.00843435 0)
(1.00051 0.00942028 0)
(1.0077 0.00351734 0)
(1.00574 0.00201218 0)
(1.00428 -0.00164221 0)
(1.00255 -0.00308857 0)
(1.00105 -0.00271745 0)
(0.998549 -0.00406301 0)
(0.996022 -0.00111376 0)
(0.993964 0.00106129 0)
(1.00189 0.000109785 0)
(0.998365 -0.00370113 0)
(0.995568 0.00118005 0)
(0.998951 0.00573811 0)
(1.00749 0.00378502 0)
(1.00699 -0.0064774 0)
(1.00112 -0.00835778 0)
(0.991485 -0.00837537 0)
(0.990328 0.0022587 0)
(0.995038 0.00346239 0)
(0.996054 0.00791301 0)
(1.00037 0.00920722 0)
(1.00738 0.00332063 0)
(1.00555 0.00201654 0)
(1.00402 -0.00134383 0)
(1.00253 -0.00299042 0)
(1.00099 -0.00237642 0)
(0.998674 -0.00352932 0)
(0.996355 -0.00101519 0)
(0.994304 0.00145075 0)
(1.00175 0.000108748 0)
(0.998493 -0.00359606 0)
(0.995671 0.00116912 0)
(0.999086 0.00547927 0)
(1.00715 0.00361099 0)
(1.00677 -0.00622685 0)
(1.00102 -0.008091 0)
(0.991865 -0.00798423 0)
(0.990641 0.00206179 0)
(0.995304 0.00345743 0)
(0.996228 0.00739793 0)
(1.00024 0.00896912 0)
(1.00704 0.00316428 0)
(1.00538 0.00198194 0)
(1.00374 -0.00101854 0)
(1.00251 -0.00287283 0)
(1.00094 -0.00207617 0)
(0.998792 -0.00296717 0)
(0.996685 -0.000914663 0)
(0.994665 0.00175367 0)
(1.0016 0.000107338 0)
(0.99863 -0.00348782 0)
(0.995767 0.00115095 0)
(0.999222 0.00522649 0)
(1.0068 0.00342575 0)
(1.00656 -0.00596185 0)
(1.00093 -0.00783659 0)
(0.992252 -0.00758053 0)
(0.990952 0.00185967 0)
(0.995567 0.0034459 0)
(0.996398 0.00690278 0)
(1.00011 0.00870699 0)
(1.00669 0.00304498 0)
(1.00522 0.00191116 0)
(1.00346 -0.00067297 0)
(1.00249 -0.00273083 0)
(1.00091 -0.00181524 0)
(0.998903 -0.0023978 0)
(0.997006 -0.000795647 0)
(0.995048 0.00196837 0)
(1.00145 0.000104931 0)
(0.998765 -0.0033743 0)
(0.995868 0.0011214 0)
(0.999348 0.00498494 0)
(1.00646 0.00322926 0)
(1.00634 -0.00568302 0)
(1.00083 -0.0075912 0)
(0.992636 -0.00717107 0)
(0.991266 0.00165842 0)
(0.995819 0.00342139 0)
(0.996568 0.00643646 0)
(0.999989 0.0084174 0)
(1.00634 0.0029577 0)
(1.00507 0.00181496 0)
(1.00318 -0.000325895 0)
(1.00246 -0.00255172 0)
(1.00092 -0.00159267 0)
(0.999008 -0.00183597 0)
(0.997314 -0.000641879 0)
(0.995454 0.00209589 0)
(1.00132 0.000100869 0)
(0.998888 -0.00325333 0)
(0.995984 0.00108097 0)
(0.999455 0.00475347 0)
(1.00613 0.00302382 0)
(1.00611 -0.00539507 0)
(1.00075 -0.00735057 0)
(0.993012 -0.00676421 0)
(0.991591 0.0014648 0)
(0.996056 0.0033773 0)
(0.996743 0.0059984 0)
(0.999865 0.00810295 0)
(1.00598 0.0028982 0)
(1.00493 0.00170439 0)
(1.00291 7.97001e-06 0)
(1.00241 -0.00232502 0)
(1.00096 -0.00141004 0)
(0.999111 -0.00129094 0)
(0.997605 -0.000441757 0)
(0.99588 0.00213997 0)
(1.0012 9.53943e-05 0)
(0.998994 -0.00312443 0)
(0.996121 0.00102772 0)
(0.99954 0.00453187 0)
(1.00581 0.00280606 0)
(1.00587 -0.00509657 0)
(1.00069 -0.00711733 0)
(0.993377 -0.00636009 0)
(0.99193 0.0012871 0)
(0.996277 0.00331133 0)
(0.996924 0.00558689 0)
(0.999741 0.00777314 0)
(1.00563 0.00286293 0)
(1.00479 0.00158427 0)
(1.00265 0.000328278 0)
(1.00235 -0.00204973 0)
(1.00103 -0.00126808 0)
(0.999216 -0.000782176 0)
(0.997871 -0.000182393 0)
(0.996322 0.00211446 0)
(1.00111 8.81297e-05 0)
(0.999083 -0.00298681 0)
(0.996278 0.000960852 0)
(0.999605 0.00432166 0)
(1.00551 0.00257897 0)
(1.00562 -0.00479247 0)
(1.00064 -0.0068821 0)
(0.99373 -0.00597044 0)
(0.992282 0.00113398 0)
(0.996484 0.00322394 0)
(0.997111 0.00520318 0)
(0.999619 0.00743052 0)
(1.00529 0.00284494 0)
(1.00465 0.00146266 0)
(1.0024 0.000627736 0)
(1.00226 -0.0017286 0)
(1.00112 -0.00114778 0)
(0.999333 -0.000331669 0)
(0.998109 0.000139513 0)
(0.996769 0.00204988 0)
(1.00103 7.91625e-05 0)
(0.999156 -0.00284198 0)
(0.996452 0.000883166 0)
(0.999655 0.00412241 0)
(1.00521 0.00234822 0)
(1.00536 -0.00449106 0)
(1.0006 -0.00663672 0)
(0.994073 -0.00560268 0)
(0.992644 0.00100011 0)
(0.99668 0.00311117 0)
(0.997304 0.00484349 0)
(0.999503 0.0070758 0)
(1.00495 0.00284119 0)
(1.00453 0.00134664 0)
(1.00218 0.000897356 0)
(1.00214 -0.00136659 0)
(1.00124 -0.00103173 0)
(0.999469 4.02549e-05 0)
(0.998315 0.000510308 0)
(0.997205 0.0019858 0)
(1.00096 6.83693e-05 0)
(0.999218 -0.00268837 0)
(0.996637 0.00079433 0)
(0.999696 0.00393023 0)
(1.00493 0.00212126 0)
(1.00508 -0.00419444 0)
(1.00057 -0.00637889 0)
(0.994407 -0.00526209 0)
(0.993012 0.000885185 0)
(0.99687 0.00298786 0)
(0.997501 0.0045003 0)
(0.999397 0.0067191 0)
(1.00461 0.00285141 0)
(1.00441 0.00124048 0)
(1.00199 0.00112984 0)
(1.00199 -0.000970198 0)
(1.00136 -0.000907576 0)
(0.99963 0.000334432 0)
(0.998494 0.000907476 0)
(0.997607 0.00197581 0)
(1.00091 5.58161e-05 0)
(0.99927 -0.00252691 0)
(0.996827 0.000696313 0)
(0.999732 0.00374291 0)
(1.00466 0.00189814 0)
(1.00481 -0.00391799 0)
(1.00054 -0.00610339 0)
(0.994733 -0.00494733 0)
(0.993382 0.000790817 0)
(0.997056 0.00286207 0)
(0.9977 0.004182 0)
(0.999304 0.00636909 0)
(1.00428 0.00287156 0)
(1.00429 0.00115083 0)
(1.00182 0.00132686 0)
(1.00183 -0.000553003 0)
(1.00147 -0.000757502 0)
(0.999819 0.00055608 0)
(0.998657 0.00129513 0)
(0.997956 0.00207019 0)
(1.00085 4.20022e-05 0)
(0.999315 -0.00236227 0)
(0.997017 0.000593598 0)
(0.999764 0.0035584 0)
(1.00439 0.00168538 0)
(1.00453 -0.00366808 0)
(1.00051 -0.00581205 0)
(0.995053 -0.00465373 0)
(0.993751 0.00070452 0)
(0.997237 0.00272576 0)
(0.997898 0.00388376 0)
(0.999226 0.00602491 0)
(1.00395 0.00290039 0)
(1.00419 0.00108083 0)
(1.00169 0.00148971 0)
(1.00165 -0.00012663 0)
(1.00156 -0.000577244 0)
(1.00004 0.000720657 0)
(0.99882 0.00163722 0)
(0.998244 0.00226638 0)
(1.0008 2.71366e-05 0)
(0.999356 -0.00219459 0)
(0.997204 0.000488398 0)
(0.999795 0.00336864 0)
(1.00413 0.00149585 0)
(1.00426 -0.00344388 0)
(1.00048 -0.00550578 0)
(0.995366 -0.00437993 0)
(0.994116 0.000614784 0)
(0.997415 0.00258533 0)
(0.998096 0.0035964 0)
(0.999165 0.0056881 0)
(1.00362 0.00293731 0)
(1.00409 0.00103021 0)
(1.00159 0.00161156 0)
(1.00146 0.000295048 0)
(1.00163 -0.000366191 0)
(1.00027 0.000853469 0)
(0.998999 0.0019106 0)
(0.998475 0.00251598 0)
(1.00075 1.19671e-05 0)
(0.999393 -0.0020276 0)
(0.997386 0.000386871 0)
(0.999825 0.00316682 0)
(1.00388 0.00133394 0)
(1.00399 -0.00324876 0)
(1.00045 -0.00518827 0)
(0.99567 -0.00411178 0)
(0.994475 0.000529069 0)
(0.997587 0.0024469 0)
(0.99829 0.00333254 0)
(0.999122 0.00536574 0)
(1.00329 0.00298195 0)
(1.00399 0.00101021 0)
(1.00153 0.00169827 0)
(1.00127 0.000699908 0)
(1.00168 -0.000130101 0)
(1.00052 0.000959759 0)
(0.999201 0.00211624 0)
(0.998667 0.00276313 0)
(1.0007 -2.66197e-06 0)
(0.999426 -0.00186521 0)
(0.997563 0.00029617 0)
(0.999853 0.00294681 0)
(1.00363 0.00119877 0)
(1.00373 -0.00307334 0)
(1.00043 -0.00487749 0)
(0.995965 -0.0038405 0)
(0.994827 0.000451566 0)
(0.997755 0.00230578 0)
(0.998479 0.0030914 0)
(0.999096 0.00506315 0)
(1.00297 0.00303421 0)
(1.00389 0.00101361 0)
(1.0015 0.00174742 0)
(1.00108 0.00108207 0)
(1.00168 0.000130022 0)
(1.00078 0.00104709 0)
(0.999428 0.00227486 0)
(0.998841 0.00297642 0)
(1.00065 -1.66478e-05 0)
(0.999455 -0.00170764 0)
(0.997732 0.000223231 0)
(0.999882 0.00270355 0)
(1.00338 0.00108003 0)
(1.00347 -0.00290334 0)
(1.0004 -0.00457982 0)
(0.996252 -0.00357807 0)
(0.995171 0.000377543 0)
(0.997919 0.00216 0)
(0.998665 0.00286512 0)
(0.99909 0.00477324 0)
(1.00266 0.00308717 0)
(1.00378 0.00104278 0)
(1.00151 0.0017604 0)
(1.00091 0.00142814 0)
(1.00166 0.000414189 0)
(1.00102 0.00112171 0)
(0.99968 0.0023964 0)
(0.999012 0.00314897 0)
(1.0006 -2.83651e-05 0)
(0.999482 -0.00156196 0)
(0.997894 0.00017488 0)
(0.99991 0.00244029 0)
(1.00313 0.000972877 0)
(1.00322 -0.00272936 0)
(1.00037 -0.00429351 0)
(0.996529 -0.00331951 0)
(0.995505 0.000317893 0)
(0.99808 0.0020188 0)
(0.998849 0.0026581 0)
(0.999103 0.00449629 0)
(1.00235 0.00313438 0)
(1.00366 0.00109219 0)
(1.00154 0.0017349 0)
(1.00076 0.00172294 0)
(1.0016 0.000717973 0)
(1.00126 0.00118868 0)
(0.999953 0.00248121 0)
(0.999188 0.00329103 0)
(1.00055 -3.7166e-05 0)
(0.999506 -0.00143221 0)
(0.998047 0.000148869 0)
(0.999936 0.00217033 0)
(1.0029 0.000870311 0)
(1.00297 -0.00254027 0)
(1.00035 -0.00401911 0)
(0.996799 -0.0030587 0)
(0.995828 0.000287612 0)
(0.998237 0.00189639 0)
(0.999029 0.00247023 0)
(0.999135 0.00422964 0)
(1.00205 0.00316616 0)
(1.00353 0.00115695 0)
(1.0016 0.00168327 0)
(1.00064 0.00196231 0)
(1.0015 0.0010412 0)
(1.00147 0.00125867 0)
(1.00025 0.00252051 0)
(0.999376 0.00340628 0)
(1.00051 -4.34694e-05 0)
(0.99953 -0.00131776 0)
(0.998189 0.000141532 0)
(0.99996 0.00189911 0)
(1.00267 0.000754588 0)
(1.00273 -0.00234641 0)
(1.00033 -0.00374742 0)
(0.997062 -0.00280064 0)
(0.996142 0.000287429 0)
(0.998388 0.00179373 0)
(0.999204 0.00229642 0)
(0.999185 0.00395651 0)
(1.00177 0.00318155 0)
(1.00337 0.00124016 0)
(1.00168 0.0016199 0)
(1.00056 0.00214132 0)
(1.00138 0.00137229 0)
(1.00164 0.00135042 0)
(1.00056 0.00251408 0)
(0.999585 0.0034914 0)
(1.00047 -4.66137e-05 0)
(0.999555 -0.00122352 0)
(0.998321 0.000147345 0)
(0.999979 0.00163949 0)
(1.00246 0.00062083 0)
(1.0025 -0.00215776 0)
(1.00031 -0.00347053 0)
(0.997321 -0.00254949 0)
(0.996444 0.000307104 0)
(0.998529 0.00171136 0)
(0.99937 0.00213162 0)
(0.999252 0.00367679 0)
(1.00151 0.00317102 0)
(1.0032 0.00133878 0)
(1.00177 0.00155343 0)
(1.00052 0.00225709 0)
(1.00125 0.00169253 0)
(1.00177 0.0014826 0)
(1.00088 0.00247682 0)
(0.999824 0.00353469 0)
(1.00042 -4.56853e-05 0)
(0.999581 -0.00114963 0)
(0.998445 0.000158329 0)
(0.999994 0.00140723 0)
(1.00226 0.000472218 0)
(1.00228 -0.0019775 0)
(1.00029 -0.00318438 0)
(0.997574 -0.00230597 0)
(0.996738 0.000341913 0)
(0.998662 0.00165337 0)
(0.999525 0.00198263 0)
(0.999335 0.00339804 0)
(1.00127 0.00313539 0)
(1.00302 0.0014543 0)
(1.00186 0.00150248 0)
(1.00054 0.00231733 0)
(1.00112 0.00197982 0)
(1.00185 0.00165025 0)
(1.0012 0.00242803 0)
(1.0001 0.00352055 0)
(1.00038 -4.2541e-05 0)
(0.999608 -0.00109066 0)
(0.998561 0.000169936 0)
(1 0.00120374 0)
(1.00208 0.000314308 0)
(1.00208 -0.00181997 0)
(1.00028 -0.00289629 0)
(0.997821 -0.00206955 0)
(0.997024 0.000396824 0)
(0.998786 0.00162352 0)
(0.999666 0.00185776 0)
(0.999434 0.00312267 0)
(1.00106 0.0030826 0)
(1.00282 0.00157556 0)
(1.00195 0.00146883 0)
(1.0006 0.00233183 0)
(1.00101 0.00222105 0)
(1.00188 0.00183951 0)
(1.00149 0.00239414 0)
(1.0004 0.00345514 0)
(1.00035 -3.5367e-05 0)
(0.999638 -0.00104263 0)
(0.998672 0.000170933 0)
(1.00001 0.00103824 0)
(1.00191 0.000149117 0)
(1.00189 -0.00168656 0)
(1.00027 -0.00261665 0)
(0.998065 -0.00184584 0)
(0.997304 0.000465097 0)
(0.998901 0.00162186 0)
(0.999791 0.00176227 0)
(0.999545 0.0028609 0)
(1.00088 0.00300177 0)
(1.00262 0.00169654 0)
(1.00203 0.00145585 0)
(1.0007 0.00230852 0)
(1.00092 0.00241629 0)
(1.00187 0.00203793 0)
(1.00175 0.00238646 0)
(1.00074 0.00335322 0)
(1.00031 -3.29839e-05 0)
(0.999669 -0.000989216 0)
(0.99878 0.000151414 0)
(1 0.000912674 0)
(1.00175 -1.52258e-05 0)
(1.00173 -0.00156968 0)
(1.00027 -0.00236561 0)
(0.998303 -0.00160464 0)
(0.997581 0.00054393 0)
(0.999009 0.00163717 0)
(0.999899 0.00169961 0)
(0.999666 0.00262802 0)
(1.00074 0.0029053 0)
(1.00242 0.00181409 0)
(1.00209 0.00147316 0)
(1.00083 0.00226103 0)
(1.00087 0.00256349 0)
(1.00183 0.00223995 0)
(1.00195 0.00240964 0)
(1.00107 0.00324214 0)
(1.00028 -2.58396e-05 0)
(0.999702 -0.000948282 0)
(0.998887 0.000130833 0)
(0.999991 0.000810391 0)
(1.0016 -0.000128125 0)
(1.00159 -0.0014593 0)
(1.00027 -0.002091 0)
(0.998536 -0.0013912 0)
(0.997851 0.000569374 0)
(0.999113 0.00161587 0)
(0.999993 0.00164271 0)
(0.999796 0.00241501 0)
(1.00065 0.00279011 0)
(1.00223 0.00191286 0)
(1.00214 0.00151406 0)
(1.00099 0.00220016 0)
(1.00086 0.00265166 0)
(1.00177 0.00243022 0)
(1.0021 0.00245788 0)
(1.0014 0.00313109 0)
(1.00024 -1.58967e-05 0)
(0.999736 -0.000915395 0)
(0.998993 0.000106988 0)
(0.99998 0.000737283 0)
(1.00146 -0.000171695 0)
(1.00148 -0.00133294 0)
(1.00028 -0.00180081 0)
(0.998756 -0.00123251 0)
(0.998116 0.000517513 0)
(0.999219 0.00153935 0)
(1.00007 0.00158502 0)
(0.999924 0.00223364 0)
(1.00058 0.00266788 0)
(1.00205 0.00198852 0)
(1.00216 0.00156649 0)
(1.00116 0.00213827 0)
(1.00089 0.00268393 0)
(1.00171 0.00259213 0)
(1.0022 0.00252976 0)
(1.00169 0.00303233 0)
(1.00021 -1.36637e-05 0)
(0.999771 -0.000867101 0)
(0.999101 6.56464e-05 0)
(0.999973 0.000689222 0)
(1.00133 -0.000173874 0)
(1.00138 -0.00121185 0)
(1.0003 -0.00155947 0)
(0.998962 -0.00106027 0)
(0.998373 0.00046596 0)
(0.999333 0.00145818 0)
(1.00015 0.00154562 0)
(1.00005 0.00209329 0)
(1.00055 0.00255621 0)
(1.00189 0.00205116 0)
(1.00217 0.00163025 0)
(1.00134 0.00208782 0)
(1.00097 0.00267763 0)
(1.00167 0.00271567 0)
(1.00226 0.0026209 0)
(1.00196 0.00296455 0)
(1.00019 -9.22861e-06 0)
(0.999805 -0.000817007 0)
(0.999209 1.91762e-05 0)
(0.999971 0.000647487 0)
(1.0012 -0.000155709 0)
(1.00129 -0.00110893 0)
(1.00033 -0.00135003 0)
(0.999154 -0.000886843 0)
(0.998619 0.000439042 0)
(0.999455 0.00138321 0)
(1.00022 0.00151292 0)
(1.00018 0.00197473 0)
(1.00054 0.00244637 0)
(1.00176 0.00209267 0)
(1.00216 0.00169528 0)
(1.00152 0.00204664 0)
(1.00109 0.00264223 0)
(1.00165 0.00279366 0)
(1.00229 0.00270874 0)
(1.00217 0.00292652 0)
(1.00016 -8.00307e-06 0)
(0.999838 -0.000760311 0)
(0.999319 -3.0255e-05 0)
(0.999976 0.000607693 0)
(1.00109 -0.000119885 0)
(1.00122 -0.00100936 0)
(1.00037 -0.0011677 0)
(0.999338 -0.00071617 0)
(0.998855 0.000442483 0)
(0.999584 0.00131155 0)
(1.0003 0.00146986 0)
(1.0003 0.00186805 0)
(1.00056 0.00233798 0)
(1.00164 0.00211432 0)
(1.00214 0.0017601 0)
(1.00168 0.00202051 0)
(1.00124 0.00258819 0)
(1.00167 0.00283305 0)
(1.0023 0.00278013 0)
(1.00233 0.0029153 0)
(1.00014 -9.01524e-06 0)
(0.999869 -0.000695448 0)
(0.999428 -8.45252e-05 0)
(0.99999 0.000560611 0)
(1.00098 -6.81591e-05 0)
(1.00116 -0.000900662 0)
(1.00042 -0.00100347 0)
(0.999515 -0.000550963 0)
(0.999076 0.00045917 0)
(0.999711 0.00124136 0)
(1.00037 0.00141804 0)
(1.00042 0.00177012 0)
(1.0006 0.002238 0)
(1.00156 0.00213027 0)
(1.00212 0.00182487 0)
(1.00183 0.00201036 0)
(1.00141 0.00252158 0)
(1.00171 0.00283331 0)
(1.0023 0.00282355 0)
(1.00244 0.00291259 0)
(1.00012 -1.14388e-05 0)
(0.999897 -0.000625566 0)
(0.999534 -0.000137845 0)
(1.00002 0.000504312 0)
(1.00088 -6.7098e-06 0)
(1.00111 -0.000782289 0)
(1.00047 -0.000860258 0)
(0.999686 -0.000406365 0)
(0.999283 0.000486462 0)
(0.999839 0.00118583 0)
(1.00045 0.00137519 0)
(1.00055 0.00168357 0)
(1.00067 0.0021397 0)
(1.00149 0.00213413 0)
(1.00209 0.001879 0)
(1.00196 0.0020061 0)
(1.00159 0.00245271 0)
(1.00179 0.00280364 0)
(1.00232 0.0028425 0)
(1.00253 0.00290939 0)
(1.0001 -1.49457e-05 0)
(0.999921 -0.000551367 0)
(0.999636 -0.000180416 0)
(1.00005 0.000438311 0)
(1.00079 5.77353e-05 0)
(1.00105 -0.000654725 0)
(1.00053 -0.000731102 0)
(0.999856 -0.000283154 0)
(0.99948 0.000523794 0)
(0.999964 0.00114818 0)
(1.00053 0.00133853 0)
(1.00067 0.00160554 0)
(1.00075 0.0020377 0)
(1.00146 0.00211955 0)
(1.00207 0.00192485 0)
(1.00208 0.00200996 0)
(1.00178 0.00239104 0)
(1.00189 0.00275667 0)
(1.00235 0.00283953 0)
(1.00259 0.00289631 0)
(1.00008 -1.8908e-05 0)
(0.999941 -0.000475215 0)
(0.999729 -0.000206282 0)
(1.0001 0.00036591 0)
(1.00072 0.000119669 0)
(1.00101 -0.000518948 0)
(1.00059 -0.000606848 0)
(1.00002 -0.000181037 0)
(0.999669 0.0005572 0)
(1.00009 0.00112412 0)
(1.00061 0.00130785 0)
(1.00079 0.00154207 0)
(1.00085 0.00194359 0)
(1.00145 0.00209148 0)
(1.00205 0.00195948 0)
(1.00218 0.00201835 0)
(1.00195 0.00233008 0)
(1.00202 0.00269102 0)
(1.00239 0.00281176 0)
(1.00265 0.00286482 0)
(1.00007 -2.20845e-05 0)
(0.999958 -0.000399945 0)
(0.999813 -0.000210815 0)
(1.00015 0.000289164 0)
(1.00066 0.000167233 0)
(1.00096 -0.000382049 0)
(1.00065 -0.00048675 0)
(1.00018 -9.61659e-05 0)
(0.999851 0.000584446 0)
(1.0002 0.00111295 0)
(1.00068 0.00129056 0)
(1.00091 0.00148954 0)
(1.00096 0.00185371 0)
(1.00147 0.00205056 0)
(1.00204 0.00197309 0)
(1.00226 0.00202285 0)
(1.00212 0.00227383 0)
(1.00215 0.00261399 0)
(1.00244 0.00277096 0)
(1.0027 0.0028242 0)
(1.00005 -2.31735e-05 0)
(0.999972 -0.000329708 0)
(0.999886 -0.000195697 0)
(1.0002 0.000215364 0)
(1.00062 0.000196359 0)
(1.00092 -0.000248333 0)
(1.0007 -0.000364342 0)
(1.00034 -2.47702e-05 0)
(1.00003 0.000600252 0)
(1.00032 0.00110126 0)
(1.00075 0.00128601 0)
(1.00101 0.00145138 0)
(1.00107 0.00176732 0)
(1.00151 0.00200085 0)
(1.00205 0.00197389 0)
(1.00233 0.00202067 0)
(1.00227 0.0022277 0)
(1.0023 0.00253141 0)
(1.00251 0.00271535 0)
(1.00274 0.00277628 0)
(1.00004 -2.20004e-05 0)
(0.999984 -0.000267453 0)
(0.999946 -0.000164492 0)
(1.00026 0.000153565 0)
(1.00059 0.000208878 0)
(1.00088 -0.000124797 0)
(1.00074 -0.000237426 0)
(1.00048 4.14654e-05 0)
(1.0002 0.000607242 0)
(1.00044 0.00108364 0)
(1.00082 0.00128267 0)
(1.0011 0.00143197 0)
(1.00119 0.00169372 0)
(1.00156 0.00194033 0)
(1.00206 0.00196518 0)
(1.0024 0.00200953 0)
(1.00241 0.00218225 0)
(1.00245 0.00244684 0)
(1.0026 0.00263856 0)
(1.00279 0.00272129 0)
(1.00003 -1.74378e-05 0)
(0.999996 -0.00021487 0)
(0.999994 -0.000124077 0)
(1.00031 0.000108548 0)
(1.00058 0.00021001 0)
(1.00086 -1.47934e-05 0)
(1.00078 -0.000109942 0)
(1.00061 0.000109444 0)
(1.00036 0.000610924 0)
(1.00056 0.00106467 0)
(1.00089 0.00127497 0)
(1.00118 0.00142289 0)
(1.00129 0.00164199 0)
(1.00163 0.00187496 0)
(1.00208 0.00193881 0)
(1.00245 0.00198973 0)
(1.00253 0.00212987 0)
(1.00259 0.00236361 0)
(1.0027 0.0025462 0)
(1.00283 0.00265517 0)
(1.00002 -1.01277e-05 0)
(1.00001 -0.000171757 0)
(1.00003 -7.99254e-05 0)
(1.00036 8.38274e-05 0)
(1.00058 0.000204901 0)
(1.00084 7.81615e-05 0)
(1.00081 1.30664e-05 0)
(1.00072 0.000183829 0)
(1.00052 0.000615999 0)
(1.00068 0.00104069 0)
(1.00096 0.00126428 0)
(1.00126 0.00141154 0)
(1.00139 0.00160271 0)
(1.0017 0.00181938 0)
(1.00212 0.00189931 0)
(1.00251 0.00196315 0)
(1.00264 0.00207719 0)
(1.00272 0.00228157 0)
(1.0028 0.00244968 0)
(1.00288 0.00257122 0)
(1.00002 -7.50058e-07 0)
(1.00002 -0.000136205 0)
(1.00007 -3.57132e-05 0)
(1.0004 7.95448e-05 0)
(1.0006 0.000200887 0)
(1.00084 0.000152526 0)
(1.00083 0.00013078 0)
(1.00081 0.000267788 0)
(1.00066 0.000628959 0)
(1.0008 0.00101311 0)
(1.00103 0.0012495 0)
(1.00133 0.00140136 0)
(1.00148 0.00156435 0)
(1.00178 0.00177055 0)
(1.00215 0.00185861 0)
(1.00255 0.00192507 0)
(1.00273 0.00202314 0)
(1.00284 0.00219657 0)
(1.00291 0.002351 0)
(1.00295 0.00247267 0)
(1.00001 9.87006e-06 0)
(1.00003 -0.000105298 0)
(1.00009 5.57478e-06 0)
(1.00043 9.14856e-05 0)
(1.00061 0.000203969 0)
(1.00084 0.000210369 0)
(1.00086 0.000236641 0)
(1.0009 0.00035471 0)
(1.00078 0.00065146 0)
(1.00091 0.000990604 0)
(1.00111 0.00122453 0)
(1.0014 0.00139187 0)
(1.00156 0.00153317 0)
(1.00185 0.00171898 0)
(1.00219 0.0018197 0)
(1.0026 0.00188162 0)
(1.00281 0.00196268 0)
(1.00295 0.00211076 0)
(1.00301 0.00224703 0)
(1.00302 0.00236647 0)
(1 2.09621e-05 0)
(1.00004 -7.74033e-05 0)
(1.00012 4.24094e-05 0)
(1.00045 0.000115678 0)
(1.00064 0.000217115 0)
(1.00086 0.000257144 0)
(1.00089 0.000324035 0)
(1.00097 0.000436841 0)
(1.00089 0.000683788 0)
(1.00102 0.000979117 0)
(1.00119 0.00119553 0)
(1.00146 0.00136999 0)
(1.00163 0.00150878 0)
(1.00192 0.00166912 0)
(1.00223 0.00177349 0)
(1.00263 0.00184173 0)
(1.00288 0.00189926 0)
(1.00304 0.00202664 0)
(1.0031 0.00214106 0)
(1.00309 0.00225353 0)
(1 3.16788e-05 0)
(1.00006 -4.98502e-05 0)
(1.00014 7.37117e-05 0)
(1.00048 0.000146763 0)
(1.00066 0.000241446 0)
(1.00089 0.000298338 0)
(1.00092 0.000395383 0)
(1.00103 0.000513201 0)
(1.00098 0.000724068 0)