/*--------------------------------*- C++ -*----------------------------------*\
| =========                 |                                                 |
| \\      /  F ield         | OpenFOAM: The Open Source CFD Toolbox           |
|  \\    /   O peration     | Version:  3.0.1                                 |
|   \\  /    A nd           | Web:      www.OpenFOAM.org                      |
|    \\/     M anipulation  |                                                 |
\*---------------------------------------------------------------------------*/
FoamFile
{
    version     2.0;
    format      ascii;
    class       volScalarField;
    location    "1";
    object      p;
}
// * * * * * * * * * * * * * * * * * * * * * * * * * * * * * * * * * * * * * //

dimensions      [0 2 -2 0 0 0 0];

internalField   nonuniform List<scalar> 
9600
(
8.17064e-12
0.0031792
0.00321433
0.00272522
0.00290443
0.00228627
0.002543
0.00279015
0.00312136
0.00387877
0.00289775
0.00280449
0.00296029
0.00345354
0.00367282
0.0046283
0.00502109
0.00690562
0.0085083
0.0128159
2.06422e-06
0.00317503
0.0032144
0.00272585
0.00290348
0.00229033
0.00255079
0.00278232
0.00312585
0.00385007
0.00289971
0.00280462
0.00296023
0.00345663
0.0036779
0.00462003
0.00503695
0.00688572
0.008535
0.0124497
4.44834e-06
0.00316993
0.00321578
0.00272697
0.00290302
0.00229495
0.00255736
0.00277052
0.00312864
0.00381995
0.00290664
0.00280916
0.00295937
0.00346378
0.00368226
0.00461088
0.00505797
0.00685246
0.00854193
0.0119763
7.26856e-06
0.0031649
0.00321844
0.00272858
0.00290132
0.00229808
0.00256332
0.00275563
0.00312893
0.00378899
0.00291508
0.00281967
0.00295538
0.00347204
0.00368641
0.00459881
0.0050805
0.00680778
0.00852324
0.0115327
1.11627e-05
0.00315965
0.00322244
0.00273021
0.00289723
0.0023005
0.0025702
0.00273738
0.00312884
0.00375309
0.00292446
0.00283275
0.00295012
0.00348004
0.00369118
0.00458335
0.00510299
0.00675517
0.00848356
0.0111212
1.63522e-05
0.00315401
0.00322774
0.00273134
0.00289056
0.00230306
0.0025781
0.00271703
0.0031295
0.00371967
0.00293521
0.0028464
0.00294562
0.0034865
0.00369706
0.00456468
0.00512418
0.00669705
0.00842416
0.0107352
2.27091e-05
0.00314787
0.00323418
0.00273182
0.00288158
0.00230614
0.00258685
0.0026961
0.00313119
0.00368539
0.00294725
0.00285947
0.00294151
0.00349075
0.0037037
0.0045432
0.0051426
0.00663563
0.0083439
0.0103715
2.99338e-05
0.00314114
0.00324161
0.00273178
0.00287074
0.0023099
0.00259629
0.00267568
0.00313386
0.00365026
0.00296032
0.00287121
0.00293763
0.00349265
0.00371045
0.00452001
0.00515643
0.00657174
0.00824271
0.0100273
3.77418e-05
0.00313383
0.00324995
0.00273146
0.00285856
0.00231431
0.0026062
0.00265632
0.00313731
0.00361427
0.00297409
0.00288132
0.00293398
0.00349234
0.0037168
0.00449637
0.00516372
0.00650546
0.00812176
0.00969871
4.59636e-05
0.00312596
0.00325914
0.00273105
0.00284545
0.00231926
0.00261637
0.00263806
0.0031413
0.00357756
0.00298821
0.00288993
0.00293046
0.00349027
0.00372214
0.00447303
0.00516296
0.00643672
0.00798236
0.00938033
5.45471e-05
0.00311756
0.00326911
0.00273064
0.00283169
0.00232454
0.00262672
0.00262068
0.00314561
0.00354037
0.00300231
0.0028973
0.00292687
0.00348729
0.00372541
0.0044503
0.00515346
0.00636497
0.00782616
0.00906706
6.35164e-05
0.00310862
0.00327979
0.00273026
0.00281745
0.00232996
0.00263722
0.00260381
0.00315002
0.003503
0.00301596
0.00290375
0.00292289
0.00348421
0.00372548
0.00442846
0.005135
0.00628851
0.00765602
0.00875548
7.29335e-05
0.00309913
0.00329107
0.00272987
0.00280287
0.00233536
0.00264785
0.0025871
0.00315433
0.00346576
0.0030287
0.00290967
0.00291809
0.00348163
0.00372168
0.00440753
0.00510749
0.0062047
0.00747549
0.00845734
8.28761e-05
0.00308902
0.00330289
0.00272943
0.00278806
0.00234061
0.00265861
0.00257031
0.00315835
0.00342901
0.00304004
0.00291553
0.0029118
0.00348013
0.00371359
0.00438678
0.00507169
0.00611023
0.0072882
0.00814455
9.34341e-05
0.00307823
0.0033152
0.00272891
0.0027731
0.00234562
0.00266981
0.00255327
0.00316184
0.0033931
0.00304951
0.00292188
0.00290335
0.00348014
0.00370101
0.00436462
0.00502954
0.00600231
0.00709639
0.00783237
0.000104706
0.00306665
0.00332796
0.00272825
0.00275809
0.00235031
0.00268076
0.00253597
0.00316455
0.00335846
0.00305659
0.00292925
0.00289233
0.00348165
0.00368419
0.00433883
0.00498331
0.00587983
0.00690002
0.00752323
0.000116797
0.00305417
0.00334115
0.00272744
0.0027431
0.00235462
0.00269169
0.00251847
0.0031662
0.00332552
0.0030607
0.00293804
0.00287841
0.00348434
0.00366392
0.00430664
0.00493484
0.00574299
0.00669779
0.00722086
0.000129829
0.00304063
0.00335479
0.00272642
0.00272821
0.00235852
0.00270252
0.00250094
0.00316648
0.00329478
0.00306122
0.00294853
0.00286123
0.00348766
0.00364175
0.0042649
0.00488498
0.00559329
0.00648709
0.00692896
0.000143935
0.00302589
0.00336886
0.00272516
0.00271352
0.002362
0.00271313
0.00248362
0.00316498
0.0032668
0.00305767
0.00296077
0.00284
0.00349021
0.00361974
0.00421113
0.00483296
0.00543408
0.00626479
0.00664881
0.000159263
0.00300975
0.00338338
0.00272364
0.00269907
0.00236506
0.00272333
0.00246679
0.00316124
0.00324211
0.00304975
0.00297464
0.00280788
0.00348975
0.00359972
0.00414437
0.00477682
0.00526954
0.00602858
0.00638021
0.000175973
0.00299204
0.00339833
0.00272185
0.00268496
0.00236775
0.00273292
0.00245081
0.00315478
0.00322111
0.00303715
0.0029898
0.0027822
0.00348387
0.00358262
0.00406467
0.00471354
0.00510387
0.00577794
0.00612181
0.000194248
0.00297251
0.00341371
0.00271978
0.00267197
0.00237016
0.00274166
0.00243615
0.00314505
0.00320404
0.00301994
0.00300556
0.0027572
0.00347029
0.00356862
0.00397312
0.00463935
0.00494132
0.00551464
0.00586866
0.000214291
0.00295093
0.00342949
0.00271743
0.00265856
0.00237245
0.00274918
0.00242332
0.00313163
0.00319083
0.00299852
0.00302077
0.0027339
0.00344729
0.00355724
0.00387197
0.00455056
0.00478485
0.00524219
0.00561376
0.000236313
0.00292706
0.00344561
0.00271487
0.00264516
0.00237486
0.00275505
0.00241275
0.00311424
0.00318133
0.00297351
0.00303374
0.00271402
0.00341411
0.00354687
0.00376429
0.00444455
0.00463522
0.00496559
0.00535061
0.000260536
0.00290067
0.00346198
0.00271221
0.00263171
0.00237769
0.00275879
0.00240474
0.00309277
0.00317516
0.00294604
0.00304251
0.00269824
0.00337044
0.00353488
0.0036531
0.00431992
0.00449152
0.00469134
0.00507487
0.000287192
0.00287152
0.00347846
0.00270955
0.00261813
0.00238143
0.00275983
0.00239946
0.00306734
0.00317152
0.00291753
0.00304538
0.00268642
0.00331658
0.00351846
0.00354104
0.00417662
0.00435148
0.00442612
0.00478504
0.000316532
0.00283936
0.00349488
0.00270709
0.0026041
0.00238656
0.00275783
0.00239693
0.00303836
0.00316927
0.00288935
0.00304132
0.0026781
0.00325365
0.0034951
0.00343038
0.0040158
0.00421172
0.00417419
0.00448223
0.000348834
0.00280401
0.00351094
0.00270517
0.00258917
0.00239351
0.00275259
0.00239689
0.00300649
0.00316719
0.00286254
0.00302969
0.00267184
0.00318279
0.00346251
0.00332292
0.00383961
0.00406828
0.00394278
0.00417091
0.000384359
0.00276531
0.00352629
0.0027041
0.00257294
0.00240276
0.00274394
0.00239872
0.0029727
0.00316412
0.00283787
0.00300999
0.00266623
0.00310521
0.00341852
0.00322015
0.00365184
0.00391668
0.00373346
0.00385894
0.000423354
0.0027232
0.00354045
0.00270431
0.00255497
0.00241454
0.00273181
0.00240167
0.00293816
0.00315884
0.00281557
0.00298221
0.00265977
0.0030222
0.00336167
0.00312302
0.00345734
0.00375197
0.00354541
0.00355763
0.000466053
0.00267768
0.00355282
0.00270631
0.00253497
0.00242891
0.0027099
0.00240479
0.00290412
0.00315025
0.0027952
0.00294702
0.00265109
0.00293461
0.0032918
0.00303158
0.00326025
0.00358615
0.00337475
0.00327904
0.000512686
0.00262881
0.00356273
0.0027106
0.00251267
0.00244585
0.00269326
0.00240691
0.00287177
0.00313766
0.00277559
0.0029052
0.00263338
0.00284304
0.00320951
0.00294513
0.00306409
0.00338815
0.00321445
0.00303116
0.000563462
0.00257684
0.00356937
0.00271761
0.00248798
0.00246502
0.00267578
0.00240682
0.00284199
0.00312068
0.00275499
0.00285757
0.00260965
0.00274845
0.00311505
0.00286229
0.00287346
0.00317378
0.00305408
0.00281491
0.000618552
0.00252217
0.00357197
0.00272771
0.00246088
0.00248588
0.00265842
0.00240332
0.00281509
0.00309942
0.00273123
0.00280472
0.00258072
0.00265187
0.00300809
0.0027807
0.00269274
0.00294748
0.00288475
0.00262518
0.000678047
0.00246526
0.00356895
0.00274113
0.00243133
0.00250775
0.00264249
0.00239763
0.00279083
0.00307481
0.00270194
0.00274669
0.00254843
0.00255448
0.0028883
0.00269766
0.00252537
0.00271452
0.00270146
0.00245391
0.000741985
0.0024067
0.00355979
0.00275801
0.00240009
0.00252961
0.0026295
0.00238377
0.0027683
0.00304843
0.00266553
0.00268289
0.00251399
0.00245817
0.0027559
0.00260935
0.00237301
0.00248119
0.00250199
0.00229186
0.000810379
0.00234709
0.0035436
0.00277849
0.0023672
0.00255032
0.00262095
0.00236282
0.00274577
0.00302245
0.00262182
0.00261117
0.0024777
0.00236611
0.00261183
0.00251158
0.00223545
0.00225413
0.00228648
0.00213019
0.00088312
0.0022872
0.00351956
0.00280252
0.00233312
0.0025685
0.00261806
0.00233134
0.00272073
0.00299884
0.00257165
0.00252892
0.00243897
0.00228139
0.00245721
0.00239874
0.00211034
0.0020402
0.0020588
0.00196083
0.000960021
0.00222786
0.0034869
0.00283005
0.00229844
0.0025824
0.00262183
0.00229721
0.00268995
0.00297871
0.00251824
0.00243495
0.00239479
0.00220632
0.00230179
0.0022687
0.00199132
0.00184637
0.00182756
0.00177759
0.00104082
0.00216994
0.00344493
0.002861
0.00226406
0.00258986
0.00263283
0.00225888
0.00264976
0.00296222
0.00246709
0.002329
0.00233966
0.00214337
0.00214881
0.00212006
0.00187174
0.00167551
0.00160415
0.00157846
0.00112509
0.00211453
0.00339306
0.00289503
0.00223119
0.0025883
0.00265105
0.00221927
0.00259644
0.00294767
0.00242394
0.00221216
0.00226835
0.00208967
0.00200505
0.0019557
0.00174201
0.00152296
0.00139901
0.00136904
0.00121213
0.00206284
0.003331
0.00293154
0.00220142
0.00257512
0.00267543
0.0021825
0.00252801
0.00293084
0.00239302
0.00208895
0.00217674
0.00203976
0.00187634
0.0017821
0.00159564
0.00138033
0.00121818
0.00116232
0.00130104
0.00201624
0.00325698
0.00296927
0.00217708
0.00254789
0.00270394
0.0021535
0.00244429
0.00290504
0.00237633
0.00196682
0.00206257
0.00198611
0.00176554
0.00160762
0.00143285
0.00123696
0.00105876
0.000970995
0.0013907
0.0019762
0.00317507
0.0030063
0.00216096
0.00250488
0.00273276
0.00213733
0.00234703
0.00286328
0.00237315
0.00185438
0.00192672
0.00192039
0.00167209
0.00144063
0.0012577
0.00108542
0.000913235
0.000800827
0.00147989
0.00194409
0.00308459
0.00303984
0.00215623
0.00244624
0.0027536
0.00213692
0.00224224
0.00280097
0.00237855
0.0017593
0.00177414
0.00183439
0.0015912
0.00128869
0.00107625
0.000923596
0.000774212
0.000651422
0.00156739
0.00192108
0.00298704
0.00306637
0.0021654
0.00237474
0.00275888
0.0021528
0.00213888
0.00271664
0.00238416
0.00168538
0.00161361
0.00172419
0.00151511
0.00115578
0.000895492
0.000750883
0.000635489
0.000520063
0.00165163
0.00190807
0.00288468
0.00308181
0.00218946
0.00229562
0.00274167
0.00218164
0.00204576
0.00261152
0.00238073
0.0016329
0.00145543
0.00159088
0.00143478
0.00104181
0.000723376
0.000568292
0.000490369
0.000403121
0.00173176
0.00190551
0.00278054
0.00308206
0.00222819
0.00221669
0.00269725
0.00221338
0.0019707
0.00249104
0.00236096
0.00159863
0.00130778
0.00143817
0.00134299
0.000943421
0.000567496
0.000381469
0.000331788
0.000293038
0.00180698
0.0019132
0.0026782
0.00306434
0.00227878
0.00214571
0.00262444
0.0022382
0.00191644
0.00236422
0.00232132
0.00157555
0.00117598
0.00127258
0.00123582
0.000854706
0.000431799
0.000200754
0.000157888
0.000177129
0.00187654
0.00193047
0.00258113
0.00302724
0.00233525
0.00208863
0.00252732
0.00224549
0.00188191
0.002241
0.00226251
0.00155576
0.00106197
0.00110153
0.0011118
0.000768963
0.000315388
3.54574e-05
-2.3415e-05
4.33417e-05
0.00193984
0.00195619
0.00249265
0.00297075
0.00238879
0.00204949
0.0024165
0.00222766
0.00185785
0.00212773
0.00218932
0.00153461
0.000965309
0.000930892
0.000971272
0.000680813
0.000215253
-0.000110522
-0.000199028
-0.000109969
0.00199659
0.00198866
0.00241544
0.00289677
0.00242961
0.0020295
0.00230376
0.00218233
0.00183158
0.0020255
0.00210941
0.00151152
0.000884493
0.000765104
0.00081586
0.000585597
0.000128525
-0.000237486
-0.000360199
-0.000271426
0.00204675
0.00202569
0.00235123
0.00280889
0.00245248
0.00202633
0.00219987
0.00211163
0.00179213
0.00193198
0.00202779
0.00148734
0.000819139
0.000608938
0.000648456
0.000478494
5.13748e-05
-0.000345542
-0.00050517
-0.000427337
0.00209066
0.00206454
0.00230097
0.00271222
0.00245441
0.00203305
0.00211193
0.00202634
0.00173464
0.00183755
0.00194554
0.00146354
0.000769879
0.00046734
0.000473441
0.000354984
-2.2891e-05
-0.000434131
-0.000633992
-0.000571395
0.00212903
0.00210249
0.00226422
0.0026133
0.0024337
0.00204036
0.0020411
0.00193937
0.00165964
0.00173237
0.00185919
0.00144103
0.000737471
0.000345079
0.00029795
0.000213434
-0.000103477
-0.00050562
-0.000743938
-0.000703583
0.00216244
0.00213751
0.00223921
0.00251791
0.00239177
0.00204014
0.0019858
0.00185901
0.00157496
0.00161308
0.00175946
0.00141806
0.000722635
0.000246946
0.000129882
5.76024e-05
-0.000198801
-0.00056717
-0.000831398
-0.000823233
0.00219155
0.00216807
0.00222315
0.00242917
0.00233209
0.00202764
0.00193821
0.00178887
0.001492
0.00148157
0.00163839
0.00138552
0.000723702
0.000177094
-2.30384e-05
-0.000104493
-0.000312004
-0.000630498
-0.000897202
-0.000925513
0.00221694
0.00219314
0.00221236
0.00234988
0.00225952
0.00199693
0.00189248
0.00172985
0.00141826
0.00134692
0.00149588
0.00133102
0.000734176
0.000138428
-0.000152399
-0.0002647
-0.000439583
-0.000705883
-0.000949594
-0.00100515
0.00223877
0.00221239
0.00220308
0.00228079
0.0021818
0.0019488
0.00184243
0.00167814
0.00135644
0.00122139
0.00133652
0.00124665
0.00073912
0.000127301
-0.000249592
-0.000414167
-0.000573926
-0.000796533
-0.00100141
-0.00106284
0.00225719
0.00222591
0.0021922
0.00222084
0.00210447
0.00188629
0.00178299
0.00162805
0.00130658
0.00111236
0.00117154
0.00113308
0.000724296
0.000134491
-0.000310841
-0.000542119
-0.000706628
-0.000898212
-0.00106265
-0.00110732
0.00227205
0.00223395
0.0021776
0.00216751
0.00203097
0.00181497
0.00171272
0.00157367
0.00126559
0.00102277
0.00101507
0.000996459
0.000681146
0.000143782
-0.000341193
-0.000639336
-0.000828472
-0.00100232
-0.00113515
-0.00115037
0.00228268
0.00223736
0.00215888
0.00211672
0.00196306
0.00174052
0.00163203
0.00151051
0.00122712
0.000951613
0.000876149
0.000848256
0.000609097
0.000141955
-0.000349463
-0.000703889
-0.000929952
-0.00110066
-0.00121287
-0.00119938
0.00228846
0.00223652
0.00213616
0.0020659
0.00190062
0.00166718
0.00154366
0.00143687
0.00118528
0.000895753
0.000759135
0.000703275
0.000514846
0.000120912
-0.000348956
-0.000739866
-0.00100545
-0.00118514
-0.00128686
-0.00125333
0.002289
0.00223122
0.00210991
0.00201418
0.00184113
0.00159736
0.00145212
0.00135297
0.00113603
0.0008489
0.000663696
0.000571458
0.000408495
7.91859e-05
-0.00034995
-0.000752991
-0.00105382
-0.00125061
-0.00134966
-0.00130481
0.00228382
0.00222128
0.00208087
0.00196039
0.00178166
0.00153101
0.00136217
0.00126072
0.00107639
0.000804402
0.000586743
0.000457887
0.000303067
2.36867e-05
-0.000358884
-0.000751881
-0.0010763
-0.00129369
-0.00139588
-0.00134659
0.00227269
0.00220633
0.00204956
0.00190496
0.00172037
0.00146672
0.00127575
0.00116358
0.00100581
0.000757698
0.000524456
0.000363485
0.000206741
-3.63904e-05
-0.000375088
-0.000743203
-0.00107435
-0.00131156
-0.00142194
-0.00137285
0.0022555
0.00218597
0.002016
0.00184804
0.00165634
0.00140256
0.00119253
0.00106486
0.000925535
0.000705081
0.000471687
0.000287649
0.000123549
-9.19198e-05
-0.000390864
-0.00072875
-0.00105055
-0.00130135
-0.00142346
-0.00137801
0.00223233
0.00216014
0.00197983
0.00179
0.0015889
0.00133648
0.00111148
0.000966276
0.000837666
0.000644258
0.0004222
0.000228416
5.6795e-05
-0.000137602
-0.000398354
-0.000704247
-0.00100619
-0.00125947
-0.00139365
-0.00135468
0.00220338
0.0021288
0.00194034
0.00173092
0.00151849
0.00126641
0.00103048
0.000867829
0.00074361
0.000574715
0.000371486
0.000180357
7.17185e-06
-0.000169291
-0.000391242
-0.000661198
-0.000936757
-0.00117974
-0.00132213
-0.00129268
0.00216891
0.002092
0.00189721
0.00167019
0.00144538
0.00119201
0.00094752
0.000768246
0.000642178
0.000494054
0.000316151
0.000138729
-2.65069e-05
-0.000182977
-0.000364224
-0.000589407
-0.000829751
-0.00104913
-0.00119075
-0.00117365
0.00212946
0.00204991
0.00184981
0.0016079
0.00136938
0.0011126
0.000861166
0.00066608
0.000531771
0.000397161
0.0002479
9.66182e-05
-4.74618e-05
-0.000174777
-0.000309281
-0.000479928
-0.000668614
-0.000845494
-0.000967375
-0.000956925
0.00208577
0.00200292
0.00179728
0.00154367
0.00129129
0.00102793
0.000769095
0.000558774
0.000411527
0.000280779
0.00015304
3.46461e-05
-6.95908e-05
-0.000147367
-0.0002153
-0.000307717
-0.00042773
-0.000546415
-0.000625205
-0.000599786
0.00203884
0.00195072
0.00174071
0.00147672
0.00121059
0.000937943
0.00067042
0.00044404
0.000279745
0.000143646
2.46687e-05
-7.38257e-05
-0.000142254
-0.000149089
-9.61906e-05
-2.62311e-05
2.37172e-05
3.60279e-05
1.67738e-05
2.17695e-05
0.00198872
0.00189443
0.00168091
0.00140829
0.00112737
0.000841258
0.000563492
0.00032093
0.000136361
-1.29943e-05
-0.00013596
-0.000232494
-0.000301913
-0.000315577
-0.000219671
2.9257e-05
0.000458447
0.00101715
0.00155528
0.00192247
0.00193501
0.00183608
0.00161873
0.00133841
0.00104328
0.000738593
0.000445402
0.000185877
-1.683e-05
-0.000182171
-0.000311627
-0.000385859
-0.000369575
-0.000196557
0.000204601
0.000802803
0.00144331
0.00199182
0.00235632
0.00247264
0.00187922
0.00177672
0.00155435
0.00126743
0.000959734
0.000636733
0.000317871
3.28879e-05
-0.000183359
-0.000333482
-0.000405538
-0.000374201
-0.000203415
0.00016513
0.000700211
0.00129005
0.00181943
0.00222656
0.00248005
0.00253472
0.00182504
0.00171709
0.00148831
0.00119301
0.000875694
0.000547177
0.00021475
-0.00011075
-0.000374933
-0.000530215
-0.000512229
-0.000261307
0.000180474
0.000711581
0.00126135
0.0017815
0.00222404
0.0025512
0.00273368
0.00272358
0.00177436
0.00166165
0.00142621
0.0011167
0.000782244
0.000443912
0.000141998
-8.82132e-05
-0.000225807
-0.000277261
-0.000266772
-0.000196133
-3.56218e-05
0.000256149
0.000727921
0.00136502
0.00203598
0.00258751
0.00292035
0.00297999
0.00172945
0.00161252
0.00137066
0.00106404
0.000730286
0.000374248
2.63213e-05
-0.000284584
-0.000477964
-0.000488119
-0.000298005
6.31116e-05
0.000542315
0.00105917
0.00155928
0.00201403
0.00239565
0.00267434
0.00281235
0.0027591
0.00169448
0.00156901
0.00131373
0.000992727
0.000645909
0.000289017
-2.92031e-05
-0.000270957
-0.000398081
-0.000385528
-0.000227361
7.52528e-05
0.00049389
0.000961734
0.00142123
0.00184794
0.00222604
0.00252181
0.00268694
0.0026619
0.0187004
0.0119058
0.00311911
-0.00348438
-0.0055298
-0.00472156
-0.00364035
-0.00309028
-0.00279389
-0.00243936
-0.00212627
-0.00195729
-0.00184848
-0.00184009
-0.00196424
-0.00204245
-0.00200708
-0.00198383
-0.00201884
-0.00206797
-0.00210912
-0.00214048
-0.00218004
-0.00224003
-0.00230566
-0.00237125
-0.00242928
-0.00246618
-0.00249689
-0.00253933
-0.00258394
-0.00261087
-0.00262315
-0.00264594
-0.00268301
-0.00271157
-0.00273253
-0.00276115
-0.00278924
-0.00280856
-0.00282621
-0.00285243
-0.00288295
-0.00291286
-0.00294952
-0.00299729
-0.00304705
-0.00309147
-0.00313706
-0.00318957
-0.00325059
-0.00330761
-0.00335843
-0.00341474
-0.00346616
-0.00350087
-0.00353158
-0.00357077
-0.00361983
-0.00367064
-0.00372552
-0.00378601
-0.00384556
-0.0038987
-0.00393787
-0.00397434
-0.00401556
-0.00407862
-0.00415082
-0.00421551
-0.00427608
-0.00433217
-0.00438413
-0.00443288
-0.00448172
-0.00453131
-0.00458233
-0.00461637
-0.00465183
-0.00468848
-0.00472072
-0.00475133
-0.00476878
-0.00477998
-0.00480725
-0.00482966
-0.00483221
-0.00483456
-0.00484767
-0.0048589
-0.00486881
-0.00487733
-0.00488462
-0.00488625
-0.00488961
-0.00490118
-0.00491135
-0.00491546
-0.00496866
-0.00502756
0.0177073
0.0117153
0.00319313
-0.00333164
-0.00543358
-0.00467683
-0.00361445
-0.00307366
-0.0027824
-0.00243017
-0.00211828
-0.0019503
-0.00184199
-0.00183396
-0.00195894
-0.00203794
-0.00200293
-0.00197998
-0.0020154
-0.00206488
-0.00210634
-0.00213796
-0.00217772
-0.00223792
-0.00230374
-0.00236949
-0.0024277
-0.00246473
-0.00249551
-0.00253805
-0.00258277
-0.0026098
-0.00262213
-0.00264497
-0.0026821
-0.00271071
-0.0027317
-0.00276036
-0.00278849
-0.00280784
-0.00282551
-0.00285176
-0.00288231
-0.00291225
-0.00294892
-0.00299672
-0.0030465
-0.00309094
-0.00313656
-0.00318909
-0.00325013
-0.00330718
-0.00335802
-0.00341434
-0.00346579
-0.00350051
-0.00353124
-0.00357043
-0.00361951
-0.00367033
-0.00372522
-0.00378573
-0.00384529
-0.00389844
-0.00393763
-0.00397411
-0.00401533
-0.0040784
-0.00415061
-0.00421532
-0.00427589
-0.004332
-0.00438397
-0.00443273
-0.00448157
-0.00453118
-0.00458221
-0.00461626
-0.00465172
-0.00468839
-0.00472063
-0.00475124
-0.00476871
-0.00477991
-0.00480718
-0.0048296
-0.00483216
-0.00483451
-0.00484762
-0.00485886
-0.00486877
-0.0048773
-0.00488459
-0.00488622
-0.00488959
-0.00490116
-0.00491133
-0.00491545
-0.00496865
-0.00502758
0.0168226
0.0115357
0.0033532
-0.00304862
-0.00526541
-0.00461364
-0.00358371
-0.00305155
-0.00276565
-0.00241742
-0.00210857
-0.00194295
-0.00183593
-0.0018284
-0.00195389
-0.0020334
-0.00199876
-0.00197626
-0.0020121
-0.00206188
-0.00210363
-0.00213551
-0.0021755
-0.00223593
-0.00230194
-0.00236786
-0.00242623
-0.00246338
-0.00249425
-0.00253689
-0.00258172
-0.00260883
-0.00262121
-0.00264409
-0.0026813
-0.00270996
-0.00273097
-0.00275967
-0.00278784
-0.00280722
-0.0028249
-0.00285117
-0.00288175
-0.0029117
-0.0029484
-0.00299622
-0.00304603
-0.00309049
-0.00313611
-0.00318867
-0.00324973
-0.00330681
-0.00335765
-0.003414
-0.00346547
-0.0035002
-0.00353093
-0.00357014
-0.00361922
-0.00367006
-0.00372496
-0.00378548
-0.00384505
-0.00389822
-0.00393742
-0.0039739
-0.00401513
-0.00407821
-0.00415044
-0.00421515
-0.00427574
-0.00433185
-0.00438383
-0.0044326
-0.00448145
-0.00453107
-0.00458211
-0.00461616
-0.00465162
-0.0046883
-0.00472055
-0.00475117
-0.00476864
-0.00477984
-0.00480712
-0.00482955
-0.00483211
-0.00483446
-0.00484758
-0.00485882
-0.00486874
-0.00487727
-0.00488456
-0.0048862
-0.00488957
-0.00490114
-0.00491132
-0.00491543
-0.00496863
-0.0050276
0.0159948
0.0113398
0.00355384
-0.00269192
-0.00503225
-0.00452013
-0.00353563
-0.00301514
-0.00273744
-0.002397
-0.00209434
-0.00193325
-0.00182911
-0.00182262
-0.00194799
-0.00202748
-0.0019935
-0.0019719
-0.00200825
-0.00205818
-0.00210013
-0.00213235
-0.00217271
-0.00223346
-0.0022997
-0.00236582
-0.00242443
-0.00246177
-0.00249278
-0.00253553
-0.00258047
-0.0026077
-0.00262017
-0.00264313
-0.00268042
-0.00270915
-0.00273019
-0.00275895
-0.00278717
-0.00280657
-0.00282427
-0.00285056
-0.00288116
-0.00291114
-0.00294785
-0.00299571
-0.00304555
-0.00309001
-0.00313565
-0.00318822
-0.00324932
-0.00330642
-0.00335728
-0.00341364
-0.00346514
-0.00349988
-0.00353061
-0.00356983
-0.00361893
-0.00366978
-0.00372468
-0.00378522
-0.00384481
-0.00389799
-0.0039372
-0.00397368
-0.00401491
-0.004078
-0.00415025
-0.00421498
-0.00427557
-0.0043317
-0.00438368
-0.00443246
-0.00448132
-0.00453094
-0.004582
-0.00461606
-0.00465153
-0.00468821
-0.00472047
-0.0047511
-0.00476857
-0.00477977
-0.00480706
-0.0048295
-0.00483206
-0.00483441
-0.00484754
-0.00485878
-0.0048687
-0.00487724
-0.00488453
-0.00488617
-0.00488954
-0.00490111
-0.0049113
-0.00491541
-0.00496861
-0.00502765
0.0151791
0.011111
0.00376119
-0.00231225
-0.00477099
-0.00441044
-0.0034776
-0.00296767
-0.00269816
-0.00236814
-0.00207444
-0.00191992
-0.0018206
-0.00181603
-0.00194052
-0.00201932
-0.00198648
-0.00196649
-0.00200356
-0.0020535
-0.0020955
-0.0021281
-0.00216893
-0.00223006
-0.00229652
-0.00236288
-0.00242183
-0.00245955
-0.00249083
-0.0025337
-0.00257875
-0.00260615
-0.00261881
-0.00264192
-0.00267932
-0.00270815
-0.00272928
-0.00275812
-0.0027864
-0.00280585
-0.00282358
-0.00284987
-0.0028805
-0.0029105
-0.00294725
-0.00299514
-0.00304499
-0.00308947
-0.00313512
-0.00318771
-0.00324884
-0.00330599
-0.00335687
-0.00341325
-0.00346476
-0.00349952
-0.00353026
-0.00356949
-0.0036186
-0.00366946
-0.00372438
-0.00378495
-0.00384455
-0.00389774
-0.00393695
-0.00397343
-0.00401466
-0.00407777
-0.00415005
-0.00421478
-0.00427539
-0.00433152
-0.00438352
-0.0044323
-0.00448117
-0.0045308
-0.00458187
-0.00461594
-0.00465141
-0.00468811
-0.00472037
-0.00475101
-0.00476849
-0.00477969
-0.00480699
-0.00482945
-0.004832
-0.00483435
-0.00484749
-0.00485874
-0.00486866
-0.0048772
-0.0048845
-0.00488614
-0.00488951
-0.00490109
-0.00491127
-0.00491537
-0.00496856
-0.00502771
0.0143787
0.0108518
0.00395992
-0.00192911
-0.00449618
-0.00429322
-0.00341732
-0.00291595
-0.00265267
-0.00233374
-0.00205038
-0.00190361
-0.00181047
-0.00180841
-0.00193132
-0.00200885
-0.00197758
-0.00195992
-0.00199796
-0.00204781
-0.00208979
-0.00212281
-0.0021642
-0.00222566
-0.00229223
-0.00235872
-0.00241809
-0.00245644
-0.00248819
-0.00253121
-0.00257635
-0.00260401
-0.002617
-0.00264032
-0.00267785
-0.00270683
-0.00272812
-0.00275709
-0.00278547
-0.00280502
-0.0028228
-0.00284911
-0.00287974
-0.00290978
-0.00294657
-0.00299449
-0.00304435
-0.00308883
-0.00313449
-0.0031871
-0.00324828
-0.00330549
-0.0033564
-0.00341279
-0.00346432
-0.0034991
-0.00352987
-0.00356911
-0.00361822
-0.00366909
-0.00372405
-0.00378464
-0.00384426
-0.00389745
-0.00393666
-0.00397314
-0.00401437
-0.0040775
-0.0041498
-0.00421455
-0.00427516
-0.00433131
-0.00438331
-0.00443211
-0.00448099
-0.00453063
-0.00458171
-0.00461579
-0.00465127
-0.00468798
-0.00472025
-0.00475091
-0.00476839
-0.00477958
-0.0048069
-0.00482937
-0.00483193
-0.00483428
-0.00484742
-0.00485868
-0.0048686
-0.00487716
-0.00488446
-0.0048861
-0.00488947
-0.00490105
-0.00491124
-0.00491532
-0.00496848
-0.00502778
0.0136036
0.0105651
0.00414196
-0.00154884
-0.00421008
-0.00416888
-0.00335638
-0.00286273
-0.00260358
-0.00229568
-0.00202353
-0.00188531
-0.00179904
-0.00179978
-0.00192071
-0.00199665
-0.00196721
-0.0019523
-0.00199152
-0.00204128
-0.00208321
-0.00211677
-0.00215881
-0.00222052
-0.00228698
-0.00235336
-0.00241308
-0.00245224
-0.00248469
-0.00252791
-0.00257311
-0.00260115
-0.00261465
-0.00263823
-0.00267588
-0.00270506
-0.00272661
-0.00275577
-0.00278431
-0.00280404
-0.00282193
-0.00284824
-0.00287886
-0.00290896
-0.00294583
-0.00299376
-0.0030436
-0.00308807
-0.00313373
-0.00318635
-0.00324758
-0.00330489
-0.00335586
-0.00341226
-0.00346379
-0.00349859
-0.00352942
-0.00356868
-0.00361778
-0.00366867
-0.00372366
-0.0037843
-0.00384393
-0.00389711
-0.0039363
-0.00397278
-0.00401402
-0.00407718
-0.0041495
-0.00421425
-0.00427488
-0.00433103
-0.00438305
-0.00443187
-0.00448075
-0.0045304
-0.0045815
-0.0046156
-0.00465109
-0.00468781
-0.00472009
-0.00475076
-0.00476826
-0.00477945
-0.00480678
-0.00482927
-0.00483183
-0.00483419
-0.00484734
-0.0048586
-0.00486853
-0.0048771
-0.0048844
-0.00488605
-0.00488941
-0.004901
-0.00491119
-0.00491525
-0.00496837
-0.00502786
0.0128607
0.0102531
0.00430212
-0.00117372
-0.00391166
-0.0040352
-0.00329432
-0.00280905
-0.00255208
-0.00225481
-0.00199456
-0.0018655
-0.00178653
-0.00179029
-0.00190917
-0.00198337
-0.00195583
-0.00194387
-0.00198438
-0.00203407
-0.00207601
-0.00211027
-0.00215309
-0.00221502
-0.00228116
-0.00234713
-0.002407
-0.00244704
-0.00248031
-0.00252374
-0.002569
-0.00259755
-0.00261174
-0.00263565
-0.00267337
-0.00270277
-0.00272466
-0.00275405
-0.00278281
-0.00280282
-0.00282092
-0.00284724
-0.00287785
-0.00290805
-0.00294503
-0.00299295
-0.00304274
-0.00308718
-0.00313283
-0.00318542
-0.0032467
-0.00330414
-0.00335522
-0.00341162
-0.00346313
-0.00349799
-0.0035289
-0.00356818
-0.00361726
-0.00366815
-0.00372322
-0.00378393
-0.00384356
-0.00389672
-0.00393588
-0.00397235
-0.0040136
-0.00407678
-0.00414913
-0.00421389
-0.00427451
-0.00433067
-0.00438271
-0.00443155
-0.00448045
-0.0045301
-0.00458121
-0.00461534
-0.00465086
-0.00468759
-0.00471987
-0.00475058
-0.00476808
-0.00477928
-0.00480663
-0.00482913
-0.00483169
-0.00483406
-0.00484722
-0.00485849
-0.00486844
-0.00487701
-0.00488432
-0.00488597
-0.00488934
-0.00490093
-0.00491111
-0.00491515
-0.00496822
-0.00502795
0.0121536
0.00991898
0.00443792
-0.000804595
-0.00360005
-0.00389056
-0.00323112
-0.00275631
-0.00249946
-0.00221185
-0.00196382
-0.00184439
-0.00177306
-0.00178016
-0.00189707
-0.00196941
-0.00194375
-0.00193482
-0.00197671
-0.00202635
-0.00206835
-0.00210342
-0.00214717
-0.00220936
-0.00227509
-0.00234043
-0.00240024
-0.00244108
-0.00247518
-0.00251879
-0.0025641
-0.00259328
-0.00260833
-0.00263263
-0.00267039
-0.00270001
-0.00272226
-0.00275189
-0.00278089
-0.0028013
-0.0028197
-0.00284608
-0.00287669
-0.00290703
-0.00294415
-0.00299208
-0.00304179
-0.0030862
-0.0031318
-0.00318431
-0.00324561
-0.00330321
-0.00335444
-0.00341085
-0.00346234
-0.00349729
-0.00352832
-0.00356761
-0.00361662
-0.00366752
-0.00372269
-0.0037835
-0.00384316
-0.00389627
-0.00393539
-0.00397184
-0.00401309
-0.0040763
-0.00414866
-0.00421342
-0.00427404
-0.00433021
-0.00438227
-0.00443114
-0.00448006
-0.0045297
-0.00458082
-0.00461499
-0.00465055
-0.00468729
-0.00471958
-0.00475032
-0.00476784
-0.00477905
-0.00480643
-0.00482894
-0.00483151
-0.00483389
-0.00484706
-0.00485835
-0.00486831
-0.00487689
-0.00488421
-0.00488587
-0.00488924
-0.00490084
-0.00491101
-0.00491501
-0.00496801
-0.00502802
0.0114848
0.00956795
0.0045487
-0.000443214
-0.00327662
-0.00373476
-0.00316736
-0.00270604
-0.002447
-0.0021673
-0.00193134
-0.00182195
-0.00175872
-0.00176952
-0.00188455
-0.00195492
-0.00193106
-0.00192525
-0.00196861
-0.00201824
-0.00206031
-0.00209626
-0.00214102
-0.00220353
-0.00226884
-0.00233346
-0.0023931
-0.00243465
-0.00246952
-0.00251326
-0.0025586
-0.00258848
-0.00260452
-0.00262927
-0.00266705
-0.00269688
-0.00271949
-0.00274933
-0.00277857
-0.00279943
-0.00281825
-0.00284474
-0.00287538
-0.00290589
-0.00294319
-0.00299113
-0.00304077
-0.00308515
-0.0031307