/*--------------------------------*- C++ -*----------------------------------*\
| =========                 |                                                 |
| \\      /  F ield         | OpenFOAM: The Open Source CFD Toolbox           |
|  \\    /   O peration     | Version:  3.0.1                                 |
|   \\  /    A nd           | Web:      www.OpenFOAM.org                      |
|    \\/     M anipulation  |                                                 |
\*---------------------------------------------------------------------------*/
FoamFile
{
    version     2.0;
    format      ascii;
    class       surfaceScalarField;
    location    "1";
    object      phi;
}
// * * * * * * * * * * * * * * * * * * * * * * * * * * * * * * * * * * * * * //

dimensions      [0 3 -1 0 0 0 0];

internalField   nonuniform List<scalar> 
19000
(
1.18508e-06
-4.29933e-07
1.16268e-06
-8.31278e-08
1.16623e-06
-1.99353e-07
1.16927e-06
4.38527e-07
1.17032e-06
-8.14978e-08
1.1966e-06
-2.40853e-07
1.21818e-06
8.40075e-08
1.19674e-06
-1.1694e-07
1.21198e-06
3.81028e-07
1.16782e-06
-7.37479e-08
1.18073e-06
2.45109e-07
1.16878e-06
2.11121e-07
1.171e-06
-4.53866e-08
1.17671e-06
-6.97855e-08
1.18206e-06
-2.3229e-07
1.17876e-06
-1.65691e-07
1.19149e-06
-2.41828e-07
1.19041e-06
-1.25851e-07
1.19754e-06
-1.14565e-07
-5.85908e-08
1.16777e-06
1.24216e-06
-4.47829e-07
1.22091e-06
-6.18827e-08
1.22507e-06
-2.03511e-07
1.23231e-06
4.31287e-07
1.23101e-06
-8.01936e-08
1.25649e-06
-2.66334e-07
1.27607e-06
6.44231e-08
1.25788e-06
-9.87465e-08
1.26604e-06
3.72866e-07
1.22962e-06
-3.73267e-08
1.23187e-06
2.42855e-07
1.23479e-06
2.08199e-07
1.2255e-06
-3.60911e-08
1.2411e-06
-8.53909e-08
1.23442e-06
-2.25603e-07
1.24588e-06
-1.77155e-07
1.24016e-06
-2.36108e-07
1.26015e-06
-1.4584e-07
1.24288e-06
-9.72933e-08
-6.61002e-08
1.25039e-06
1.29873e-06
-4.6378e-07
1.28513e-06
-4.82757e-08
1.28792e-06
-2.06305e-07
1.3007e-06
4.18511e-07
1.2949e-06
-7.44011e-08
1.31979e-06
-2.91223e-07
1.33606e-06
4.81522e-08
1.32442e-06
-8.71038e-08
1.32448e-06
3.72811e-07
1.29956e-06
-1.24083e-08
1.29097e-06
2.51445e-07
1.30259e-06
1.96574e-07
1.28722e-06
-2.07179e-08
1.30095e-06
-9.91203e-08
1.2918e-06
-2.16449e-07
1.30234e-06
-1.87704e-07
1.29693e-06
-2.30694e-07
1.31115e-06
-1.6006e-07
1.30434e-06
-9.04788e-08
-6.07547e-08
1.29899e-06
1.35526e-06
-4.74937e-07
1.35101e-06
-4.40267e-08
1.35322e-06
-2.08517e-07
1.36964e-06
4.02096e-07
1.35934e-06
-6.41073e-08
1.38285e-06
-3.14728e-07
1.39663e-06
3.4367e-08
1.39211e-06
-8.25772e-08
1.38758e-06
3.77337e-07
1.37132e-06
3.85365e-09
1.36001e-06
2.62759e-07
1.3694e-06
1.87183e-07
1.35519e-06
-6.5093e-09
1.35966e-06
-1.03594e-07
1.3528e-06
-2.0959e-07
1.35868e-06
-1.93586e-07
1.35624e-06
-2.28254e-07
1.36588e-06
-1.69694e-07
1.36445e-06
-8.90559e-08
-5.4809e-08
1.35851e-06
1.41294e-06
-4.79526e-07
1.41639e-06
-4.74738e-08
1.41975e-06
-2.1188e-07
1.43662e-06
3.8523e-07
1.42366e-06
-5.11448e-08
1.44406e-06
-3.35129e-07
1.45674e-06
2.16862e-08
1.4576e-06
-8.34411e-08
1.45288e-06
3.82059e-07
1.44116e-06
1.55724e-08
1.43336e-06
2.7056e-07
1.43672e-06
1.83821e-07
1.42443e-06
5.78298e-09
1.42178e-06
-1.00943e-07
1.41486e-06
-2.0267e-07
1.41863e-06
-1.97359e-07
1.41641e-06
-2.26035e-07
1.42419e-06
-1.77467e-07
1.42459e-06
-8.94576e-08
-5.02644e-08
1.42004e-06
1.47387e-06
-4.77717e-07
1.48141e-06
-5.5018e-08
1.48711e-06
-2.17582e-07
1.50201e-06
3.70333e-07
1.48878e-06
-3.79117e-08
1.50456e-06
-3.50917e-07
1.51641e-06
9.84576e-09
1.52043e-06
-8.74617e-08
1.51781e-06
3.84672e-07
1.50852e-06
2.48632e-08
1.50547e-06
2.73613e-07
1.50462e-06
1.84665e-07
1.4932e-06
1.72093e-08
1.48737e-06
-9.51161e-08
1.47919e-06
-1.94489e-07
1.48153e-06
-1.99697e-07
1.47895e-06
-2.23456e-07
1.48443e-06
-1.82949e-07
1.48593e-06
-9.09518e-08
-4.60148e-08
1.48168e-06
1.53982e-06
-4.71325e-07
1.54795e-06
-6.31395e-08
1.55559e-06
-2.25225e-07
1.56789e-06
3.58034e-07
1.55617e-06
-2.61934e-08
1.56674e-06
-3.61487e-07
1.57683e-06
-2.45703e-10
1.58206e-06
-9.26899e-08
1.58184e-06
3.8489e-07
1.57447e-06
3.22354e-08
1.57505e-06
2.73031e-07
1.57296e-06
1.86754e-07
1.56271e-06
2.7462e-08
1.55627e-06
-8.86706e-08
1.54751e-06
-1.85731e-07
1.54817e-06
-2.00362e-07
1.54517e-06
-2.20455e-07
1.5477e-06
-1.85477e-07
1.54936e-06
-9.26112e-08
-4.1281e-08
1.54463e-06
1.61151e-06
-4.62711e-07
1.61803e-06
-6.9657e-08
1.62592e-06
-2.33115e-07
1.63637e-06
3.47585e-07
1.62705e-06
-1.68696e-08
1.63263e-06
-3.67067e-07
1.63992e-06
-7.53748e-09
1.64482e-06
-9.75952e-08
1.64648e-06
3.83235e-07
1.64095e-06
3.77646e-08
1.64398e-06
2.69997e-07
1.64273e-06
1.88007e-07
1.63467e-06
3.55227e-08
1.62893e-06
-8.29326e-08
1.62055e-06
-1.7735e-07
1.61951e-06
-1.99324e-07
1.61593e-06
-2.16873e-07
1.61527e-06
-1.84815e-07
1.61621e-06
-9.35542e-08
-3.55809e-08
1.61051e-06
1.68859e-06
-4.53728e-07
1.69282e-06
-7.38865e-08
1.69909e-06
-2.39385e-07
1.70881e-06
3.37869e-07
1.70209e-06
-1.01499e-08
1.70337e-06
-3.68351e-07
1.70747e-06
-1.1633e-08
1.71104e-06
-1.01167e-07
1.71403e-06
3.80243e-07
1.71017e-06
4.16272e-08
1.7149e-06
2.65265e-07
1.71545e-06
1.87456e-07
1.71022e-06
4.07535e-08
1.70568e-06
-7.83952e-08
1.69829e-06
-1.6996e-07
1.69567e-06
-1.96701e-07
1.69147e-06
-2.12677e-07
1.68775e-06
-1.8109e-07
1.68744e-06
-9.32405e-08
-2.87903e-08
1.68065e-06
1.7703e-06
-4.45302e-07
1.77254e-06
-7.61278e-08
1.77606e-06
-2.42906e-07
1.78583e-06
3.28093e-07
1.78151e-06
-5.82329e-09
1.77939e-06
-3.66234e-07
1.78064e-06
-1.28833e-08
1.78247e-06
-1.02999e-07
1.7865e-06
3.76216e-07
1.78398e-06
4.41449e-08
1.7899e-06
2.59345e-07
1.79238e-06
1.8498e-07
1.78996e-06
4.31741e-08
1.78651e-06
-7.49438e-08
1.78038e-06
-1.63832e-07
1.7763e-06
-1.92623e-07
1.7716e-06
-2.07978e-07
1.76526e-06
-1.74754e-07
1.76345e-06
-9.143e-08
-2.11652e-08
1.75583e-06
1.85604e-06
-4.37589e-07
1.85697e-06
-7.70628e-08
1.85753e-06
-2.43466e-07
1.8677e-06
3.1792e-07
1.86529e-06
-3.40667e-09
1.8607e-06
-3.61645e-07
1.85988e-06
-1.20643e-08
1.86009e-06
-1.03212e-07
1.86504e-06
3.71264e-07
1.86349e-06
4.57003e-08
1.87019e-06
2.52641e-07
1.87417e-06
1.80997e-07
1.87411e-06
4.32354e-08
1.87128e-06
-7.21081e-08
1.86644e-06
-1.5899e-07
1.86104e-06
-1.87228e-07
1.85597e-06
-2.02906e-07
1.84771e-06
-1.66496e-07
1.84433e-06
-8.80442e-08
-1.32528e-08
1.83641e-06
1.9456e-06
-4.30348e-07
1.94591e-06
-7.73765e-08
1.9439e-06
-2.41452e-07
1.95452e-06
3.07301e-07
1.95339e-06
-2.27852e-09
1.94717e-06
-3.55426e-07
1.94511e-06
-1.00071e-08
1.94414e-06
-1.02236e-07
1.94999e-06
3.65415e-07
1.94902e-06
4.66679e-08
1.95622e-06
2.45439e-07
1.96106e-06
1.76162e-07
1.96279e-06
4.15055e-08
1.96e-06
-6.93174e-08
1.9563e-06
-1.55298e-07
1.94977e-06
-1.80693e-07
1.94437e-06
-1.9751e-07
1.93498e-06
-1.57101e-07
1.93002e-06
-8.30913e-08
-5.69078e-09
1.92246e-06
2.03908e-06
-4.23237e-07
2.03931e-06
-7.76112e-08
2.0353e-06
-2.37438e-07
2.04632e-06
2.96277e-07
2.04587e-06
-1.82273e-09
2.03869e-06
-3.4825e-07
2.03605e-06
-7.36457e-09
2.03439e-06
-1.00577e-07
2.04112e-06
3.58682e-07
2.04041e-06
4.73775e-08
2.04798e-06
2.37866e-07
2.05301e-06
1.71132e-07
2.05606e-06
3.84637e-08
2.05283e-06
-6.6091e-08
2.05006e-06
-1.52524e-07
2.04262e-06
-1.73255e-07
2.03679e-06
-1.91687e-07
2.02703e-06
-1.47333e-07
2.02059e-06
-7.6659e-08
1.03686e-09
2.01387e-06
2.13673e-06
-4.15965e-07
2.13727e-06
-7.81509e-08
2.13175e-06
-2.31919e-07
2.14315e-06
2.8488e-07
2.14286e-06
-1.53888e-09
2.13521e-06
-3.40596e-07
2.13238e-06
-4.53927e-09
2.13045e-06
-9.86454e-08
2.13804e-06
3.51091e-07
2.13732e-06
4.81002e-08
2.14529e-06
2.29898e-07
2.14999e-06
1.6643e-07
2.15402e-06
3.44335e-08
2.15007e-06
-6.21362e-08
2.14792e-06
-1.50374e-07
2.13988e-06
-1.65219e-07
2.13339e-06
-1.852e-07
2.1239e-06
-1.37839e-07
2.11621e-06
-6.89661e-08
6.76977e-09
2.11047e-06
2.23885e-06
-4.08327e-07
2.23995e-06
-7.92483e-08
2.23326e-06
-2.25229e-07
2.24504e-06
2.73103e-07
2.24458e-06
-1.08687e-09
2.23676e-06
-3.32772e-07
2.23394e-06
-1.72121e-09
2.23198e-06
-9.6689e-08
2.24041e-06
3.4267e-07
2.23946e-06
4.90488e-08
2.24795e-06
2.21407e-07
2.25198e-06
1.62397e-07
2.2568e-06
2.96153e-08
2.25204e-06
-5.73734e-08
2.25017e-06
-1.48508e-07
2.24191e-06
-1.56955e-07
2.23444e-06
-1.77736e-07
2.22568e-06
-1.2908e-07
2.2171e-06
-6.03816e-08
1.16911e-08
2.21218e-06
2.34574e-06
-4.00194e-07
2.34755e-06
-8.10592e-08
2.33988e-06
-2.17558e-07
2.35207e-06
2.60913e-07
2.35126e-06
-2.75197e-10
2.34344e-06
-3.24954e-07
2.34069e-06
1.03198e-09
2.33879e-06
-9.47928e-08
2.34803e-06
3.33436e-07
2.34669e-06
5.03871e-08
2.35586e-06
2.12239e-07
2.35905e-06
1.59202e-07
2.36452e-06
2.41491e-08
2.35906e-06
-5.19116e-08
2.35711e-06
-1.46561e-07
2.34901e-06
-1.48861e-07
2.34027e-06
-1.68994e-07
2.33249e-06
-1.21298e-07
2.32346e-06
-5.13536e-08
1.61744e-08
2.31898e-06
2.45769e-06
-3.91484e-07
2.4603e-06
-8.36736e-08
2.45174e-06
-2.08996e-07
2.46439e-06
2.4826e-07
2.46314e-06
9.78081e-10
2.45541e-06
-3.1723e-07
2.45273e-06
3.71837e-09
2.45086e-06
-9.2922e-08
2.4609e-06
3.23396e-07
2.45904e-06
5.22405e-08
2.46902e-06
2.02266e-07
2.47134e-06
1.56878e-07
2.47731e-06
1.81775e-08
2.47141e-06
-4.60105e-08
2.46899e-06
-1.44139e-07
2.46146e-06
-1.41334e-07
2.45128e-06
-1.58816e-07
2.44441e-06
-1.14427e-07
2.43545e-06
-4.23958e-08
2.06206e-08
2.43101e-06
2.57496e-06
-3.82151e-07
2.57843e-06
-8.714e-08
2.56901e-06
-1.9958e-07
2.58217e-06
2.35101e-07
2.58046e-06
2.68618e-09
2.57286e-06
-3.09632e-07
2.57024e-06
6.33881e-09
2.56829e-06
-9.09721e-08
2.57915e-06
3.12539e-07
2.57669e-06
5.47034e-08
2.58753e-06
1.91422e-07
2.58906e-06
1.55349e-07
2.59535e-06
1.18922e-08
2.58937e-06
-4.00313e-08
2.58608e-06
-1.40857e-07
2.57943e-06
-1.34677e-07
2.56792e-06
-1.4731e-07
2.56156e-06
-1.08067e-07
2.55323e-06
-3.40663e-08
2.53336e-08
2.54852e-06
2.69784e-06
-3.72164e-07
2.70219e-06
-9.14839e-08
2.69193e-06
-1.89322e-07
2.70562e-06
2.2141e-07
2.70348e-06
4.8232e-09
2.696e-06
-3.02148e-07
2.69347e-06
8.86748e-09
2.69131e-06
-8.88072e-08
2.70301e-06
3.00839e-07
2.69987e-06
5.78391e-08
2.71157e-06
1.79719e-07
2.71248e-06
1.54446e-07
2.71882e-06
5.55217e-09
2.71316e-06
-3.43751e-08
2.70867e-06
-1.3637e-07
2.70305e-06
-1.29054e-07
2.69054e-06
-1.34797e-07
2.68413e-06
-1.01655e-07
2.67693e-06
-2.68664e-08
3.04349e-08
2.67182e-06
2.82661e-06
-3.61506e-07
2.83184e-06
-9.67173e-08
2.82075e-06
-1.78233e-07
2.83498e-06
2.07188e-07
2.83246e-06
7.3396e-09
2.82505e-06
-2.94739e-07
2.82268e-06
1.12389e-08
2.82015e-06
-8.62801e-08
2.83273e-06
2.88257e-07
2.8289e-06
6.16763e-08
2.84137e-06
1.67247e-07
2.84189e-06
1.53929e-07
2.84796e-06
-5.21301e-10
2.84302e-06
-2.94372e-08
2.83707e-06
-1.30419e-07
2.83246e-06
-1.24443e-07
2.81943e-06
-1.21764e-07
2.81242e-06
-9.46497e-08
2.80666e-06
-2.11043e-08
3.58194e-08
2.80127e-06
2.96156e-06
-3.50167e-07
2.96768e-06
-1.02843e-07
2.95578e-06
-1.66332e-07
2.9705e-06
1.9247e-07
2.96767e-06
1.01664e-08
2.96027e-06
-2.87333e-07
2.95816e-06
1.33468e-08
2.95512e-06
-8.32426e-08
2.96862e-06
2.74753e-07
2.9641e-06
6.6198e-08
2.97718e-06
1.54165e-07
2.97761e-06
1.53509e-07
2.98306e-06
-5.97734e-09
2.97917e-06
-2.55486e-08
2.97164e-06
-1.22889e-07
2.96781e-06
-1.20608e-07
2.95482e-06
-1.08776e-07
2.94686e-06
-8.66896e-08
2.94253e-06
-1.67733e-08
4.11489e-08
2.9372e-06
3.10298e-06
-3.38143e-07
3.10999e-06
-1.09853e-07
3.09732e-06
-1.53655e-07
3.11247e-06
1.77321e-07
3.10942e-06
1.32116e-08
3.10191e-06
-2.79825e-07
3.10021e-06
1.50511e-08
3.09652e-06
-7.95565e-08
3.11097e-06
2.60308e-07
3.10584e-06
7.13195e-08
3.1193e-06
1.40713e-07
3.11996e-06
1.52841e-07
3.12443e-06
-1.04443e-08
3.12182e-06
-2.29337e-08
3.11279e-06
-1.1386e-07
3.10931e-06
-1.17128e-07
3.09692e-06
-9.63882e-08
3.08787e-06
-7.76435e-08
3.08469e-06
-1.35878e-08
4.59517e-08
3.07988e-06
3.2512e-06
-3.25436e-07
3.25908e-06
-1.1773e-07
3.24569e-06
-1.40264e-07
3.26117e-06
1.61841e-07
3.25802e-06
1.63585e-08
3.25028e-06
-2.72083e-07
3.24915e-06
1.61852e-08
3.24469e-06
-7.50983e-08
3.26004e-06
2.44951e-07
3.25449e-06
7.6876e-08
3.268e-06
1.27197e-07
3.26928e-06
1.51563e-07
3.27242e-06
-1.35833e-08
3.27116e-06
-2.16694e-08
3.26088e-06
-1.03579e-07
3.25726e-06
-1.13514e-07
3.2459e-06
-8.50267e-08
3.23589e-06
-6.763e-08
3.23335e-06
-1.10549e-08
4.97476e-08
3.22956e-06
3.40655e-06
-3.12054e-07
3.41526e-06
-1.26442e-07
3.40124e-06
-1.26243e-07
3.41692e-06
1.46166e-07
3.41382e-06
1.94591e-08
3.40568e-06
-2.63944e-07
3.4053e-06
1.65653e-08
3.39997e-06
-6.97747e-08
3.41615e-06
2.28774e-07
3.4104e-06
8.26208e-08
3.42363e-06
1.13969e-07
3.42586e-06
1.49339e-07
3.42742e-06
-1.51452e-08
3.42741e-06
-2.16574e-08
3.41626e-06
-9.24317e-08
3.41204e-06
-1.09291e-07
3.40197e-06
-7.49629e-08
3.39129e-06
-5.69448e-08
3.38887e-06
-8.63258e-09
5.21994e-08
3.38641e-06
3.56937e-06
-2.98014e-07
3.57887e-06
-1.3594e-07
3.56434e-06
-1.11711e-07
3.58003e-06
1.3047e-07
3.57716e-06
2.23337e-08
3.56843e-06
-2.5522e-07
3.569e-06
1.60046e-08
3.56276e-06
-6.35432e-08
3.57958e-06
2.11957e-07
3.57396e-06
8.82398e-08
3.58653e-06
1.01397e-07
3.58996e-06
1.45912e-07
3.58986e-06
-1.50473e-08
3.59082e-06
-2.26106e-08
3.57925e-06
-8.08629e-08
3.57406e-06
-1.04108e-07
3.56538e-06
-6.62769e-08
3.55442e-06
-4.59867e-08
3.55164e-06
-5.8568e-09
5.32099e-08
3.55063e-06
3.74003e-06
-2.83341e-07
3.75025e-06
-1.46158e-07
3.73536e-06
-9.68174e-08
3.75086e-06
1.14968e-07
3.74842e-06
2.47744e-08
3.73891e-06
-2.45716e-07
3.74056e-06
1.4355e-08
3.73347e-06
-5.64492e-08
3.75067e-06
1.94754e-07
3.74553e-06
9.33851e-08
3.75709e-06
8.98293e-08
3.76185e-06
1.41157e-07
3.7602e-06
-1.33947e-08
3.76169e-06
-2.41022e-08
3.75016e-06
-6.93348e-08
3.74381e-06
-9.7759e-08
3.73642e-06
-5.8885e-08
3.72561e-06
-3.51819e-08
3.72217e-06
-2.41549e-09
5.29417e-08
3.72244e-06
3.91892e-06
-2.6807e-07
3.92977e-06
-1.57008e-07
3.9147e-06
-8.17524e-08
3.92975e-06
9.99152e-08
3.92798e-06
2.65509e-08
3.9175e-06
-2.3524e-07
3.92032e-06
1.15347e-08
3.91252e-06
-4.86456e-08
3.92978e-06
1.77493e-07
3.92546e-06
9.77089e-08
3.93574e-06
7.95478e-08
3.94178e-06
1.35111e-07
3.93884e-06
-1.04513e-08
3.94039e-06
-2.56527e-08
3.92931e-06
-5.82498e-08
3.92172e-06
-9.01735e-08
3.91546e-06
-5.26241e-08
3.9052e-06
-2.49185e-08
3.90094e-06
1.83628e-09
5.17641e-08
3.90212e-06
4.10643e-06
-2.52246e-07
4.1178e-06
-1.68382e-07
4.10279e-06
-6.67411e-08
4.1171e-06
8.56001e-08
4.11623e-06
2.74243e-08
4.10464e-06
-2.23648e-07
4.1086e-06
7.57155e-09
4.10034e-06
-4.03858e-08
4.11729e-06
1.60541e-07
4.1141e-06
1.009e-07
4.12291e-06
7.07413e-08
4.13007e-06
1.27952e-07
4.12616e-06
-6.54288e-09
4.12735e-06
-2.68408e-08
4.11699e-06
-4.78923e-08
4.10827e-06
-8.14483e-08
4.10288e-06
-4.72384e-08
4.09351e-06
-1.55457e-08
4.08846e-06
6.88826e-09
5.0177e-08
4.09004e-06
4.30298e-06
-2.35927e-07
4.31475e-06
-1.80146e-07
4.30006e-06
-5.20506e-08
4.31332e-06
7.2338e-08
4.31358e-06
2.71637e-08
4.30082e-06
-2.1089e-07
4.30576e-06
2.63661e-09
4.29738e-06
-3.20119e-08
4.31364e-06
1.44283e-07
4.31182e-06
1.02722e-07
4.31906e-06
6.34953e-08
4.32705e-06
1.19964e-07
4.32248e-06
-1.97213e-09
4.32299e-06
-2.73459e-08
4.31356e-06
-3.84665e-08
4.30392e-06
-7.18035e-08
4.29909e-06
-4.24113e-08
4.2909e-06
-7.35907e-09
4.2852e-06
1.25884e-08
4.87252e-08
4.28665e-06
4.50903e-06
-2.19182e-07
4.52102e-06
-1.92139e-07
4.50695e-06
-3.79811e-08
4.51884e-06
6.04527e-08
4.52043e-06
2.55766e-08
4.50653e-06
-1.97e-07
4.51217e-06
-3.00142e-09
4.50407e-06
-2.39136e-08
4.51927e-06
1.29091e-07
4.51896e-06
1.0303e-07
4.52465e-06
5.78007e-08
4.53312e-06
1.11503e-07
4.52811e-06
3.03658e-09
4.52778e-06
-2.70219e-08
4.51939e-06
-3.00725e-08
4.50914e-06
-6.15524e-08
4.50454e-06
-3.78152e-08
4.49773e-06
-5.44862e-10
4.49169e-06
1.86292e-08
4.78982e-08
4.49251e-06
4.72503e-06
-2.02094e-07
4.73706e-06
-2.04176e-07
4.72393e-06
-2.48483e-08
4.73414e-06
5.02431e-08
4.73714e-06
2.25776e-08
4.72228e-06
-1.82136e-07
4.72827e-06
-9.00104e-09
4.72087e-06
-1.65072e-08
4.73465e-06
1.15306e-07
4.73589e-06
1.01795e-07
4.74013e-06
5.35617e-08
4.74866e-06
1.02967e-07
4.7435e-06
8.20348e-09
4.74225e-06
-2.57738e-08
4.73492e-06
-2.27458e-08
4.72441e-06
-5.10428e-08
4.71975e-06
-3.31499e-08
4.71433e-06
4.87121e-09
4.70835e-06
2.46086e-08
4.79885e-08
4.70826e-06
4.95146e-06
-1.8476e-07
4.96333e-06
-2.16045e-07
4.95144e-06
-1.29597e-08
4.95975e-06
4.19351e-08
4.96415e-06
1.81841e-08
4.94854e-06
-1.66532e-07
4.95453e-06
-1.49845e-08
4.94819e-06
-1.01765e-08
4.96032e-06
1.03181e-07
4.96297e-06
9.91409e-08
4.96594e-06
5.05925e-08
4.97415e-06
9.47564e-08
4.96911e-06
1.32435e-08
4.96702e-06
-2.36821e-08
4.96068e-06
-1.64036e-08
4.9502e-06
-4.05652e-08
4.94527e-06
-2.82208e-08
4.94108e-06
9.05923e-09
4.9356e-06
3.00966e-08
4.90097e-08
4.93457e-06
5.18885e-06
-1.6729e-07
5.20031e-06
-2.27513e-07
5.18995e-06
-2.59518e-09
5.19624e-06
3.56489e-08
5.20191e-06
1.25143e-08
5.18585e-06
-1.50478e-07
5.19141e-06
-2.05423e-08
5.18648e-06
-5.2512e-09
5.19681e-06
9.2853e-08
5.20059e-06
9.53583e-08
5.20263e-06
4.85541e-08
5.2101e-06
8.72851e-08
5.20536e-06
1.79847e-08
5.20265e-06
-2.09703e-08
5.19722e-06
-1.09768e-08
5.18697e-06
-3.0312e-08
5.18168e-06
-2.29293e-08
5.17846e-06
1.22746e-08
5.17378e-06
3.47794e-08
5.07383e-08
5.17205e-06
5.43771e-06
-1.49807e-07
5.44852e-06
-2.3833e-07
5.43991e-06
6.01853e-09
5.44418e-06
3.1381e-08
5.45092e-06
5.77271e-09
5.43474e-06
-1.34294e-07
5.43947e-06
-2.52781e-08
5.43616e-06
-1.94204e-09
5.4447e-06
8.43185e-08
5.44921e-06
9.084e-08
5.45077e-06
4.70025e-08
5.45718e-06
8.0873e-08
5.45276e-06
2.24025e-08
5.44966e-06
-1.78713e-08
5.44512e-06
-6.43237e-09
5.43525e-06
-2.04489e-08
5.42953e-06
-1.72099e-08
5.427e-06
1.48044e-08
5.4233e-06
3.84811e-08
5.28431e-08
5.4212e-06
5.6986e-06
-1.32447e-07
5.70851e-06
-2.48237e-07
5.70181e-06
1.27153e-08
5.70415e-06
2.90426e-08
5.71173e-06
-1.80925e-09
5.69574e-06
-1.18304e-07
5.69932e-06
-2.88627e-08
5.69768e-06
-3.02037e-10
5.70455e-06
7.74541e-08
5.7093e-06
8.60858e-08
5.71082e-06
4.54796e-08
5.7162e-06
7.54949e-08
5.71194e-06
2.66649e-08
5.70856e-06
-1.44891e-08
5.70489e-06
-2.76776e-09
5.6956e-06
-1.11598e-08
5.68942e-06
-1.10289e-08
5.68728e-06
1.6944e-08
5.68463e-06
4.11384e-08
5.49993e-08
5.68247e-06
5.9721e-06
-1.15358e-07
5.98083e-06
-2.56966e-07
5.97616e-06
1.73916e-08
5.97671e-06
2.84926e-08
5.98489e-06
-9.99349e-09
5.96943e-06
-1.02842e-07
5.97158e-06
-3.10178e-08
5.97154e-06
-2.60323e-10
5.97694e-06
7.20589e-08
5.98141e-06
8.16114e-08
5.98321e-06
4.36833e-08
5.98787e-06
7.08382e-08
5.9836e-06
3.09335e-08
5.97987e-06
-1.07654e-08
5.97707e-06
3.86486e-11
5.96861e-06
-2.69875e-09
5.96196e-06
-4.38523e-09
5.95992e-06
1.89844e-08
5.95826e-06
4.2796e-08
5.69078e-08
5.95636e-06
6.25883e-06
-9.86999e-08
6.26611e-06
-2.64242e-07
6.26353e-06
1.99683e-08
6.26242e-06
2.96011e-08
6.271e-06
-1.85687e-08
6.25639e-06
-8.82404e-08
6.25689e-06
-3.15128e-08
6.25826e-06
-1.62863e-09
6.26252e-06
6.78008e-08
6.26616e-06
7.79713e-08
6.26831e-06
4.15262e-08
6.27275e-06
6.64023e-08
6.26847e-06
3.52156e-08
6.26421e-06
-6.51308e-09
6.26216e-06
2.09417e-09
6.25479e-06
4.67106e-09
6.24783e-06
2.57633e-09
6.24559e-06
2.12248e-08
6.24476e-06
4.36192e-08
5.82797e-08
6.24339e-06
6.55941e-06
-8.26417e-08
6.56494e-06
-2.69773e-07
6.56455e-06
2.03578e-08
6.56189e-06
3.22669e-08
6.5707e-06
-2.73792e-08
6.55727e-06
-7.48125e-08
6.55589e-06
-3.01326e-08
6.55838e-06
-4.11913e-09
6.56194e-06
6.42454e-08
6.56431e-06
7.55978e-08
6.56666e-06
3.91721e-08
6.57144e-06
6.16221e-08
6.56726e-06
3.93944e-08
6.5623e-06
-1.55138e-09
6.56071e-06
3.69182e-09
6.55467e-06
1.0704e-08
6.5477e-06
9.54538e-09
6.54501e-06
2.3915e-08
6.54472e-06
4.39171e-08
5.88745e-08
6.54412e-06
6.87451e-06
-6.73621e-08
6.87799e-06
-2.73252e-07
6.87989e-06
1.84547e-08
6.87578e-06
3.63822e-08
6.88467e-06
-3.62695e-08
6.87276e-06
-6.29021e-08
6.86925e-06
-2.66247e-08
6.87251e-06
-7.37546e-09
6.87597e-06
6.07847e-08
6.87687e-06
7.46903e-08
6.87902e-06
3.70238e-08
6.88444e-06
5.62011e-08
6.88072e-06
4.31148e-08
6.87492e-06
4.25296e-09
6.87337e-06
5.24491e-09
6.8688e-06
1.52671e-08
6.86219e-06
1.61599e-08
6.859e-06
2.71047e-08
6.85881e-06
4.41083e-08
5.86105e-08
6.85907e-06
7.20482e-06
-5.30471e-08
7.20591e-06
-2.74343e-07
7.21023e-06
1.41329e-08
7.20481e-06
4.1806e-08
7.21359e-06
-4.50468e-08
7.20357e-06
-5.28845e-08
7.19776e-06
-2.08126e-08
7.20128e-06
-1.08961e-08
7.2053e-06
5.67598e-08
7.20484e-06
7.51511e-08
7.20617e-06
3.56939e-08
7.21229e-06
5.00805e-08
7.20947e-06
4.59375e-08
7.2029e-06
1.08249e-08
7.20096e-06
7.18073e-09
7.19771e-06
1.85207e-08
7.19186e-06
2.20042e-08
7.18832e-06
3.0651e-08
7.18787e-06
4.45608e-08
5.76584e-08
7.18882e-06
7.55106e-06
-3.98814e-08
7.5494e-06
-2.72683e-07
7.55626e-06
7.27188e-09
7.54976e-06
4.83051e-08
7.55804e-06
-5.33267e-08
7.55036e-06
-4.5203e-08
7.54234e-06
-1.27871e-08
7.54534e-06
-1.39059e-08
7.55058e-06
5.15261e-08
7.54916e-06
7.65742e-08
7.54902e-06
3.58308e-08
7.55553e-06
4.35655e-08
7.55406e-06
4.74079e-08
7.54707e-06
1.78184e-08
7.54434e-06
9.9119e-09
7.54208e-06
2.07812e-08
7.53731e-06
2.67755e-08
7.53369e-06
3.42674e-08
7.53281e-06
4.5446e-08
5.64013e-08
7.53406e-06
7.91397e-06
-2.80432e-08
7.90923e-06
-2.67945e-07
7.91867e-06
-2.15968e-09
7.91144e-06
5.55347e-08
7.91854e-06
-6.04257e-08
7.91372e-06
-4.03877e-08
7.90392e-06
-2.98223e-09
7.90553e-06
-1.55171e-08
7.91225e-06
4.48039e-08
7.9106e-06
7.82224e-08
7.90863e-06
3.78013e-08
7.91483e-06
3.7364e-08
7.91507e-06
4.71658e-08
7.90815e-06
2.47375e-08
7.90444e-06
1.36282e-08
7.90274e-06
2.2481e-08
7.89913e-06
3.0385e-08
7.89577e-06
3.76239e-08
7.89451e-06
4.67053e-08
5.5256e-08
7.89566e-06
8.29433e-06
-1.76871e-08
8.28631e-06
-2.59934e-07
8.29816e-06
-1.40063e-08
8.29064e-06
6.30598e-08
8.29573e-06
-6.5515e-08
8.29419e-06
-3.88544e-08
8.28342e-06
7.79281e-09
8.28274e-06
-1.48397e-08
8.29077e-06
3.6775e-08
8.2898e-06
7.91935e-08
8.28604e-06
4.1555e-08
8.29112e-06
3.22855e-08
8.29306e-06
4.52298e-08
8.28684e-06
3.09539e-08
8.28218e-06
1.82853e-08
8.28059e-06
2.4072e-08
8.27804e-06
3.29428e-08
8.27523e-06
4.04333e-08
8.2738e-06
4.81343e-08
5.44765e-08
8.27458e-06
8.69291e-06
-8.93311e-09
8.68167e-06
-2.48695e-07
8.69546e-06
-2.78014e-08
8.68828e-06
7.02394e-08
8.69054e-06
-6.77716e-08
8.69235e-06
-4.06664e-08
8.68168e-06
1.84658e-08
8.67807e-06
-1.12276e-08
8.6867e-06
2.81399e-08
8.68728e-06
7.86115e-08
8.68223e-06
4.66054e-08
8.6855e-06
2.90162e-08
8.68869e-06
4.20407e-08
8.68378e-06
3.58675e-08
8.67846e-06
2.35995e-08
8.6766e-06
2.59317e-08
8.67489e-06
3.46614e-08
8.67278e-06
4.25366e-08
8.67142e-06
4.94986e-08
5.41201e-08
8.67178e-06
9.11054e-06
-1.85149e-09
9.09632e-06
-2.34475e-07
9.11135e-06
-4.28282e-08
9.10549e-06
7.60963e-08
9.10405e-06
-6.6334e-08
9.10881e-06
-4.54301e-08
9.0995e-06
2.77756e-08
9.09276e-06
-4.48194e-09
9.10081e-06
2.00878e-08
9.10358e-06
7.58417e-08
9.09804e-06
5.21427e-08
9.09913e-06
2.79329e-08
9.10291e-06
3.82549e-08
9.09961e-06
3.91696e-08
9.09413e-06
2.90813e-08
9.09175e-06
2.83053e-08
9.09057e-06
3.58427e-08
9.08922e-06
4.38855e-08
9.08815e-06
5.05745e-08
5.41088e-08
9.08816e-06
9.54806e-06
3.5459e-09
9.53133e-06
-2.17743e-07
9.54664e-06
-5.81369e-08
9.54313e-06
7.96025e-08
9.53749e-06
-6.06957e-08
9.54419e-06
-5.21217e-08
9.53757e-06
3.43948e-08
9.52805e-06
5.03225e-09
9.53422e-06
1.39164e-08
9.53932e-06
7.07491e-08
9.5342e-06
5.72616e-08
9.53316e-06
2.89695e-08
9.53674e-06
3.46732e-08
9.5351e-06
4.0817e-08
9.52997e-06
3.42028e-08
9.52706e-06
3.12153e-08
9.52608e-06
3.68277e-08
9.52542e-06
4.45401e-08
9.52482e-06
5.11792e-08
5.42904e-08
9.52464e-06
1.00064e-05
7.31001e-09
9.98773e-06
-1.991e-07
1.00023e-05
-7.26947e-08
1.00019e-05
7.99439e-08
9.99226e-06
-5.10074e-08
9.9993e-06
-5.91694e-08
9.99643e-06
3.72731e-08
9.98523e-06
1.62272e-08
9.98847e-06
1.06728e-08
9.99527e-06
6.39551e-08
9.99139e-06
6.11438e-08
9.98866e-06
3.16985e-08
9.99136e-06
3.19726e-08
9.99113e-06
4.10415e-08
9.98681e-06
3.85292e-08
9.98355e-06
3.44757e-08
9.98247e-06
3.79068e-08
9.98231e-06
4.4698e-08
9.98231e-06
5.11811e-08
5.44478e-08
9.98215e-06
1.04864e-05
9.55744e-09
1.04665e-05
-1.79204e-07
1.04794e-05
-8.55798e-08
1.04826e-05
7.67423e-08
1.04698e-05
-3.82278e-08
1.04752e-05
-6.45932e-08
1.04766e-05
3.59284e-08
1.04653e-05
2.75451e-08
1.04652e-05
1.07556e-08
1.04725e-05
5.66569e-08
1.04703e-05
6.32954e-08
1.04665e-05
3.54662e-08
1.0468e-05
3.04977e-08
1.04688e-05
4.03117e-08
1.04655e-05
4.17998e-08
1.04622e-05
3.7802e-08
1.04609e-05
3.91947e-08
1.04609e-05
4.46552e-08
1.04615e-05
5.05836e-08
5.4297e-08
1.04617e-05
1.09891e-05
1.04614e-08
1.09686e-05
-1.58695e-07
1.09791e-05
-9.60881e-08
1.09858e-05
7.0073e-08
1.09714e-05
-2.387e-08
1.09733e-05
-6.6467e-08
1.09786e-05
3.06684e-08
1.09689e-05
3.72518e-08
1.09657e-05
1.39241e-08
1.09723e-05
5.00897e-08
1.09718e-05
6.37172e-08
1.09678e-05
3.95416e-08
1.09679e-05
3.03291e-08
1.09691e-05
3.91224e-08
1.0967e-05
4.39466e-08
1.09638e-05
4.09288e-08
1.09624e-05
4.06394e-08
1.09624e-05
4.46335e-08
1.09634e-05
4.96054e-08
5.35685e-08
1.09641e-05
1.15156e-05
1.02536e-08
1.14951e-05
-1.38235e-07
1.15027e-05
-1.0367e-07
1.15124e-05
6.03459e-08
1.1498e-05
-9.48688e-09
1.14954e-05
-6.3823e-08
1.15033e-05
2.27614e-08
1.14966e-05
4.39289e-08
1.14912e-05
1.93367e-08
1.14961e-05
4.52173e-08
1.1497e-05
6.28204e-08
1.14932e-05
4.33614e-08
1.14922e-05
3.12768e-08
1.14934e-05
3.79069e-08
1.14923e-05
4.5036e-08
1.14896e-05
4.36445e-08
1.14881e-05
4.21671e-08
1.14881e-05
4.46633e-08
1.14891e-05
4.85845e-08
5.22057e-08
1.14904e-05
1.20669e-05
9.21538e-09
1.20471e-05
-1.18479e-07
1.20513e-05
-1.07905e-07
1.20634e-05
4.82621e-08
1.20505e-05
3.43078e-09
1.20436e-05
-5.69208e-08
1.20519e-05
1.44585e-08
1.20491e-05
4.67053e-08
1.20428e-05
2.56498e-08
1.20455e-05
4.25722e-08
1.2047e-05
6.13079e-08
1.20437e-05
4.66058e-08
1.2042e-05
3.30119e-08
1.2043e-05
3.69486e-08
1.20427e-05
4.52652e-08
1.20406e-05
4.57458e-08
1.20391e-05
4.37356e-08
1.2039e-05
4.46853e-08
1.20399e-05
4.76817e-08
5.04894e-08
1.20417e-05
1.26441e-05
7.66111e-09
1.26257e-05
-1.00065e-07
1.26263e-05
-1.08505e-07
1.26399e-05
3.4706e-08
1.26296e-05
1.3719e-08
1.26194e-05
-4.66901e-08
1.26259e-05
7.8799e-09
1.26269e-05
4.57279e-08
1.26213e-05
3.12626e-08
1.26218e-05
4.20961e-08
1.26232e-05
5.98551e-08
1.26206e-05
4.92613e-08
1.26184e-05
3.52025e-08
1.2619e-05
3.63765e-08
1.26194e-05
4.48769e-08
1.2618e-05
4.71124e-08
1.26165e-05
4.52407e-08
1.26164e-05
4.47473e-08
1.26173e-05
4.68021e-08
4.88178e-08
1.2619e-05
1.32487e-05
5.91054e-09
1.32322e-05
-8.36233e-08
1.32291e-05
-1.05348e-07
1.32431e-05
2.06769e-08
1.32361e-05
2.07764e-08
1.3224e-05
-3.46049e-08
1.32275e-05
4.3608e-09
1.32309e-05
4.23152e-08
1.32272e-05
3.49491e-08
1.32264e-05
4.28643e-08
1.32272e-05
5.90552e-08
1.3225e-05
5.15379e-08
1.32226e-05
3.7585e-08
1.32227e-05
3.62522e-08
1.32235e-05
4.40508e-08
1.32229e-05
4.7749e-08
1.32217e-05
4.64744e-08
1.32215e-05
4.49517e-08
1.32224e-05
4.58351e-08
4.73154e-08
1.32239e-05
1.38818e-05
4.24652e-09
1.38678e-05
-6.9557e-08
1.38613e-05
-9.88676e-08
1.38745e-05
7.4859e-09
1.38708e-05
2.44672e-08
1.38583e-05
-2.21254e-08
1.38585e-05
4.14976e-09
1.38624e-05
3.84106e-08
1.38612e-05
3.61977e-08
1.38605e-05
4.35564e-08
1.38605e-05
5.90181e-08
1.38583e-05
5.37105e-08
1.38558e-05
4.01346e-08
1.38556e-05
3.64838e-08
1.38566e-05
4.30365e-08
1.38567e-05
4.76703e-08
1.38558e-05
4.72852e-08
1.38555e-05
4.52652e-08
1.38565e-05
4.48668e-08
4.58346e-08
1.3858e-05
1.4545e-05
2.87079e-09
1.45334e-05
-5.79081e-08
1.45245e-05
-8.99709e-08
1.45354e-05
-3.42302e-09
1.45349e-05
2.49503e-08
1.45233e-05
-1.05208e-08
1.45208e-05
6.67852e-09
1.45237e-05
3.55282e-08
1.45243e-05
3.56086e-08
1.45246e-05
4.32497e-08
1.45245e-05
5.91177e-08
1.45222e-05
5.60128e-08
1.45194e-05
4.28688e-08
1.45188e-05
3.70686e-08
1.45199e-05
4.19657e-08
1.45206e-05
4.69853e-08
1.45203e-05
4.75426e-08
1.452e-05
4.55682e-08
1.45209e-05
4.40472e-08
4.42649e-08
1.45224e-05
1.52398e-05
1.90623e-09
1.52304e-05
-4.84968e-08
1.522e-05
-7.95752e-08
1.52278e-05
-1.11757e-08
1.52298e-05
2.29192e-08
1.522e-05
-6.59382e-10
1.52156e-05
1.0999e-08
1.52169e-05
3.42564e-08
1.5218e-05
3.45425e-08
1.52197e-05
4.15719e-08
1.52203e-05
5.84445e-08
1.5218e-05
5.83726e-08
1.5215e-05
4.57978e-08
1.5214e-05
3.8137e-08
1.5215e-05
4.09294e-08
1.52161e-05
4.58716e-08
1.52165e-05
4.717e-08
1.52164e-05
4.56484e-08
1.5217e-05
4.34919e-08
4.26403e-08
1.52186e-05
1.59678e-05
1.39381e-09
1.59603e-05
-4.09303e-08
1.59493e-05
-6.85815e-08
1.59536e-05
-1.55375e-08
1.59571e-05
1.9506e-08
1.59495e-05
6.92521e-09
1.59445e-05
1.601e-08
1.59441e-05
3.46567e-08
1.59444e-05
3.41782e-08
1.5947e-05
3.89671e-08
1.5949e-05
5.64844e-08
1.59473e-05
6.00668e-08
1.59441e-05
4.89705e-08
1.59426e-05
3.96871e-08
1.59434e-05
4.00967e-08
1.59448e-05
4.4503e-08
1.59457e-05
4.62368e-08
1.59461e-05
4.52521e-08
1.59465e-05
4.31281e-08
4.11555e-08
1.5948e-05
1.67307e-05
1.2751e-09
1.67245e-05
-3.46887e-08
1.67137e-05
-5.77929e-08
1.67148e-05
-1.66767e-08
1.67184e-05
1.59201e-08
1.67133e-05
1.20442e-08
1.67084e-05
2.09218e-08
1.67068e-05
3.62647e-08
1.6706e-05
3.49079e-08
1.67085e-05
3.65545e-08
1.67117e-05
5.32006e-08
1.67114e-05
6.04139e-08
1.67083e-05
5.20743e-08
1.67063e-05
4.17006e-08
1.67067e-05
3.96854e-08
1.67082e-05
4.2975e-08
1.67095e-05
4.49755e-08
1.67105e-05
4.42717e-08
1.6711e-05
4.26167e-08
3.99876e-08
1.67121e-05
1.75302e-05
1.45189e-09
1.75249e-05
-2.94128e-08
1.75149e-05
-4.77603e-08
1.75133e-05
-1.51416e-08
1.75159e-05
1.33174e-08
1.7513e-05
1.5022e-08
1.75088e-05
2.5088e-08
1.75066e-05
3.84424e-08
1.75049e-05
3.66551e-08
1.75061e-05
3.53007e-08
1.75102e-05
4.91036e-08
1.75114e-05
5.92122e-08
1.75091e-05
5.43705e-08
1.75067e-05
4.40803e-08
1.75066e-05
3.98225e-08
1.75082e-05
4.14167e-08
1.75096e-05
4.35294e-08
1.7511e-05
4.28879e-08
1.7512e-05
4.16271e-08
3.90527e-08
1.75129e-05
1.8368e-05
1.79945e-09
1.83633e-05
-2.46871e-08
1.83544e-05
-3.88412e-08
1.8351e-05
-1.17579e-08
1.8352e-05
1.22808e-08
1.83503e-05
1.67457e-08
1.83473e-05
2.80418e-08
1.83451e-05
4.06762e-08
1.83426e-05
3.91133e-08
1.83426e-05
3.53648e-08
1.83464e-05
4.52837e-08
1.8349e-05
5.66057e-08
1.8348e-05
5.53835e-08
1.83456e-05
4.643e-08
1.8345e-05
4.04721e-08
1.83463e-05
4.01137e-08
1.8348e-05
4.18451e-08
1.83495e-05
4.1385e-08
1.8351e-05
4.01215e-08
3.80202e-08
1.8352e-05
1.9246e-05
2.19614e-09
1.92414e-05
-2.01202e-08
1.92337e-05