/*--------------------------------*- C++ -*----------------------------------*\
| =========                 |                                                 |
| \\      /  F ield         | OpenFOAM: The Open Source CFD Toolbox           |
|  \\    /   O peration     | Version:  3.0.1                                 |
|   \\  /    A nd           | Web:      www.OpenFOAM.org                      |
|    \\/     M anipulation  |                                                 |
\*---------------------------------------------------------------------------*/
FoamFile
{
    version     2.0;
    format      ascii;
    class       volVectorField;
    location    "1";
    object      U;
}
// * * * * * * * * * * * * * * * * * * * * * * * * * * * * * * * * * * * * * //

dimensions      [0 1 -1 0 0 0 0];

internalField   nonuniform List<vector> 
9600
(
(0.863883 -0.00419556 0)
(1.15623 -0.0010924 0)
(0.843816 -0.00234857 0)
(1.13974 0.00569842 0)
(0.87301 -0.0011644 0)
(1.1197 -0.00339274 0)
(0.936749 0.00169742 0)
(1.13946 -0.00240765 0)
(0.91925 0.00776884 0)
(1.14576 -0.00227833 0)
(0.864555 0.00589828 0)
(1.14467 0.00516214 0)
(0.866499 -0.00127663 0)
(1.12908 -0.00193529 0)
(0.891946 -0.00760391 0)
(1.12524 -0.00589811 0)
(0.896618 -0.00921922 0)
(1.13734 -0.00513555 0)
(0.89918 -0.00521627 0)
(1.15097 -0.00329275 0)
(0.875222 -0.00441355 0)
(1.14521 -0.000781747 0)
(0.859844 -0.00239274 0)
(1.12969 0.00564341 0)
(0.893755 -0.00112203 0)
(1.1078 -0.00387025 0)
(0.951931 0.00120363 0)
(1.12505 -0.00192932 0)
(0.938226 0.00743853 0)
(1.12253 -0.00115836 0)
(0.895225 0.00572009 0)
(1.10816 0.00542652 0)
(0.916445 -0.00113949 0)
(1.08021 -0.00230961 0)
(0.950479 -0.00757437 0)
(1.06384 -0.00606095 0)
(0.971708 -0.00933149 0)
(1.05375 -0.00573617 0)
(1.00137 -0.00483314 0)
(1.03394 -0.00368247 0)
(0.894737 -0.00460085 0)
(1.12329 -0.000573006 0)
(0.888571 -0.00244524 0)
(1.10969 0.00552696 0)
(0.926289 -0.0010958 0)
(1.0855 -0.00430568 0)
(0.977292 0.000903526 0)
(1.10019 -0.00164999 0)
(0.970756 0.00731573 0)
(1.08942 -0.00046023 0)
(0.942441 0.00573771 0)
(1.065 0.00520945 0)
(0.969227 -0.000802356 0)
(1.03647 -0.00286494 0)
(0.991328 -0.00722214 0)
(1.02392 -0.00661782 0)
(1.00379 -0.00900294 0)
(1.02026 -0.0066262 0)
(1.01926 -0.0042448 0)
(1.0195 -0.00332227 0)
(0.918918 -0.00473785 0)
(1.09336 -0.000477534 0)
(0.922253 -0.00246747 0)
(1.08407 0.00533367 0)
(0.959466 -0.000988806 0)
(1.05867 -0.00467606 0)
(1.00191 0.000679495 0)
(1.07283 -0.00152101 0)
(1.00225 0.00739824 0)
(1.06007 -5.83899e-05 0)
(0.983268 0.00601237 0)
(1.03786 0.00488086 0)
(1.00065 -0.000369242 0)
(1.01683 -0.00313665 0)
(1.00436 -0.00698748 0)
(1.01086 -0.0068774 0)
(1.00747 -0.00892292 0)
(1.01268 -0.00706271 0)
(1.01592 -0.00416403 0)
(1.01831 -0.00281777 0)
(0.943518 -0.00481168 0)
(1.0613 -0.000483358 0)
(0.952604 -0.00249329 0)
(1.05869 0.00510365 0)
(0.98481 -0.000815332 0)
(1.03452 -0.00501646 0)
(1.01744 0.000462274 0)
(1.04943 -0.00150194 0)
(1.02241 0.00751578 0)
(1.04001 0.000224406 0)
(1.00765 0.00627477 0)
(1.02673 0.00471554 0)
(1.01344 8.64334e-06 0)
(1.01114 -0.0031339 0)
(1.00567 -0.00677352 0)
(1.00597 -0.00703768 0)
(1.0054 -0.00884447 0)
(1.00777 -0.00741639 0)
(1.01201 -0.00412402 0)
(1.014 -0.00259537 0)
(0.964721 -0.00481793 0)
(1.03344 -0.000555685 0)
(0.974508 -0.00254728 0)
(1.03791 0.00488796 0)
(0.999601 -0.00062473 0)
(1.01716 -0.00529783 0)
(1.02231 0.000254314 0)
(1.03195 -0.00155363 0)
(1.02967 0.00759771 0)
(1.02733 0.000448897 0)
(1.01742 0.0064024 0)
(1.02232 0.00469953 0)
(1.01655 0.000335168 0)
(1.0091 -0.00298143 0)
(1.00455 -0.00652237 0)
(1.00248 -0.00714994 0)
(1.00258 -0.00874045 0)
(1.00309 -0.0076961 0)
(1.00724 -0.0041815 0)
(1.00879 -0.00239397 0)
(0.98044 -0.00476953 0)
(1.01365 -0.000651307 0)
(0.987168 -0.00263216 0)
(1.02304 0.00470893 0)
(1.00586 -0.000447132 0)
(1.00679 -0.00549489 0)
(1.01975 6.9079e-05 0)
(1.0193 -0.00164167 0)
(1.02769 0.00762642 0)
(1.01843 0.000627663 0)
(1.01807 0.00642324 0)
(1.01865 0.00474396 0)
(1.01558 0.000639491 0)
(1.00754 -0.00278161 0)
(1.00341 -0.0062416 0)
(1.00023 -0.00719279 0)
(0.999937 -0.00863399 0)
(0.999365 -0.00786126 0)
(1.00218 -0.00427399 0)
(1.00342 -0.00217157 0)
(0.990584 -0.00468974 0)
(1.00229 -0.000735929 0)
(0.992751 -0.00273145 0)
(1.01316 0.00456341 0)
(1.00723 -0.000296593 0)
(1.00144 -0.00560944 0)
(1.01398 -7.81264e-05 0)
(1.01003 -0.00173535 0)
(1.02107 0.00760882 0)
(1.01136 0.000764096 0)
(1.0143 0.00637673 0)
(1.01443 0.00478792 0)
(1.01317 0.000901526 0)
(1.0063 -0.00259473 0)
(1.00274 -0.00595115 0)
(0.999336 -0.00717478 0)
(0.998149 -0.00852087 0)
(0.99675 -0.00788571 0)
(0.997916 -0.00434397 0)
(0.998448 -0.00191208 0)
(0.996363 -0.00460005 0)
(0.997262 -0.000794419 0)
(0.994247 -0.00282044 0)
(1.00667 0.00443657 0)
(1.00659 -0.000181515 0)
(0.999017 -0.00565449 0)
(1.00793 -0.000173042 0)
(1.00332 -0.0018127 0)
(1.0133 0.00756052 0)
(1.00575 0.00086291 0)
(1.00919 0.00628416 0)
(1.0103 0.00479887 0)
(1.0106 0.00108661 0)
(1.00548 -0.00243859 0)
(1.00256 -0.005683 0)
(0.999348 -0.00710504 0)
(0.9973 -0.00838281 0)
(0.995117 -0.0077717 0)
(0.994802 -0.00435841 0)
(0.994399 -0.00160618 0)
(0.999324 -0.00451328 0)
(0.995837 -0.000827202 0)
(0.994015 -0.00288019 0)
(1.00234 0.00431322 0)
(1.00547 -0.000103726 0)
(0.998039 -0.00564307 0)
(1.00295 -0.000214792 0)
(0.998777 -0.00186093 0)
(1.00637 0.00749105 0)
(1.00174 0.000929168 0)
(1.00447 0.00615929 0)
(1.00691 0.00475888 0)
(1.00846 0.00118926 0)
(1.00495 -0.00231794 0)
(1.00265 -0.00545974 0)
(0.999733 -0.00698205 0)
(0.997052 -0.00821069 0)
(0.9942 -0.00754137 0)
(0.992735 -0.00431172 0)
(0.991454 -0.00123501 0)
(1.00072 -0.00443362 0)
(0.995929 -0.000841561 0)
(0.993373 -0.00290344 0)
(0.99945 0.00418534 0)
(1.00443 -5.80072e-05 0)
(0.997674 -0.0055883 0)
(0.999371 -0.000214707 0)
(0.996029 -0.00187759 0)
(1.00116 0.00740251 0)
(0.999311 0.000970864 0)
(1.00094 0.0060108 0)
(1.00452 0.00467075 0)
(1.00692 0.00122052 0)
(1.00456 -0.00222506 0)
(1.00278 -0.00528916 0)
(1.00011 -0.00679784 0)
(0.997034 -0.00802283 0)
(0.993706 -0.00722176 0)
(0.991463 -0.00419518 0)
(0.989525 -0.00084009 0)
(1.00134 -0.00435986 0)
(0.996407 -0.00084596 0)
(0.992848 -0.0028927 0)
(0.997613 0.00405098 0)
(1.00359 -3.57699e-05 0)
(0.99751 -0.00550334 0)
(0.997023 -0.000187409 0)
(0.994603 -0.0018689 0)
(0.997752 0.00729548 0)
(0.998141 0.000996388 0)
(0.998717 0.00584641 0)
(1.00302 0.00455269 0)
(1.00592 0.00119352 0)
(1.00419 -0.00214216 0)
(1.00282 -0.0051587 0)
(1.00029 -0.00657079 0)
(0.997019 -0.00782852 0)
(0.99342 -0.0068367 0)
(0.990733 -0.00400453 0)
(0.98841 -0.000450089 0)
(1.0016 -0.00428884 0)
(0.996837 -0.00084697 0)
(0.992552 -0.00285492 0)
(0.996535 0.00391061 0)
(1.00295 -2.72606e-05 0)
(0.997377 -0.00539957 0)
(0.995604 -0.000145737 0)
(0.994023 -0.00184383 0)
(0.995834 0.00717062 0)
(0.997782 0.0010124 0)
(0.997583 0.00567239 0)
(1.00217 0.00442188 0)
(1.00533 0.00112449 0)
(1.00383 -0.00205077 0)
(1.00272 -0.00505972 0)
(1.00027 -0.00631542 0)
(0.996927 -0.00762139 0)
(0.993232 -0.00642071 0)
(0.990355 -0.00373088 0)
(0.987891 -9.53209e-05 0)
(1.00168 -0.00421731 0)
(0.997133 -0.000849719 0)
(0.992445 -0.00279694 0)
(0.995969 0.0037651 0)
(1.00246 -2.3956e-05 0)
(0.997235 -0.00528544 0)
(0.994811 -9.86562e-05 0)
(0.993903 -0.00181081 0)
(0.99495 0.00702854 0)
(0.997837 0.00102555 0)
(0.997183 0.0054905 0)
(1.00174 0.00429386 0)
(1.00499 0.00102312 0)
(1.0035 -0.00193592 0)
(1.00254 -0.00499222 0)
(1.00013 -0.0060299 0)
(0.996774 -0.00739223 0)
(0.993113 -0.00601031 0)
(0.9902 -0.00338208 0)
(0.98777 0.000193636 0)
(1.00168 -0.0041428 0)
(0.997319 -0.000857906 0)
(0.992457 -0.00272344 0)
(0.995718 0.00361486 0)
(1.00209 -1.97816e-05 0)
(0.997094 -0.00516668 0)
(0.994408 -5.05572e-05 0)
(0.993989 -0.00177613 0)
(0.994675 0.0068706 0)
(0.998039 0.00104222 0)
(0.99719 0.00529806 0)
(1.00156 0.00418203 0)
(1.00478 0.000893567 0)
(1.00322 -0.00179578 0)
(1.00233 -0.00493976 0)
(0.99994 -0.00573004 0)
(0.996609 -0.00712253 0)
(0.993062 -0.00563809 0)
(0.990196 -0.00298344 0)
(0.987902 0.000440021 0)
(1.00164 -0.0040638 0)
(0.997436 -0.000873325 0)
(0.992533 -0.00263749 0)
(0.99564 0.00345955 0)
(1.0018 -1.12572e-05 0)
(0.996976 -0.00504675 0)
(0.994233 -3.32888e-06 0)
(0.99415 -0.00174207 0)
(0.994697 0.00669685 0)
(0.998249 0.00106663 0)
(0.997371 0.00509159 0)
(1.0015 0.00409146 0)
(1.00464 0.000746038 0)
(1.00298 -0.00163765 0)
(1.00212 -0.00488361 0)
(0.999758 -0.00543374 0)
(0.996471 -0.0067995 0)
(0.993088 -0.00530995 0)
(0.990307 -0.00256494 0)
(0.988185 0.000665042 0)
(1.00158 -0.00397932 0)
(0.997515 -0.000897205 0)
(0.992634 -0.00254056 0)
(0.99565 0.00329846 0)
(1.00158 3.50264e-06 0)
(0.996898 -0.00492783 0)
(0.994186 4.24632e-05 0)
(0.994329 -0.00170874 0)
(0.994827 0.00650668 0)
(0.998411 0.00110018 0)
(0.997589 0.00486756 0)
(1.00147 0.00402568 0)
(1.00451 0.000582697 0)
(1.00278 -0.00145899 0)
(1.00194 -0.00482094 0)
(0.999612 -0.0051524 0)
(0.996381 -0.00641634 0)
(0.993188 -0.00501826 0)
(0.990508 -0.0021398 0)
(0.988557 0.000889395 0)
(1.00153 -0.00388869 0)
(0.997574 -0.000930466 0)
(0.992742 -0.00243314 0)
(0.995701 0.00313085 0)
(1.0014 2.51981e-05 0)
(0.996862 -0.0048112 0)
(0.994208 8.75291e-05 0)
(0.99451 -0.00167512 0)
(0.994974 0.00630027 0)
(0.998513 0.00114607 0)
(0.997787 0.00461963 0)
(1.00143 0.00398429 0)
(1.00438 0.000407131 0)
(1.0026 -0.00126878 0)
(1.00178 -0.00473431 0)
(0.999509 -0.00490567 0)
(0.996338 -0.00597153 0)
(0.993353 -0.00475176 0)
(0.990782 -0.0017324 0)
(0.988978 0.00113861 0)
(1.00147 -0.00379155 0)
(0.997623 -0.000973447 0)
(0.992848 -0.00231552 0)
(0.995768 0.00295631 0)
(1.00125 5.33635e-05 0)
(0.99686 -0.00469658 0)
(0.994267 0.000131739 0)
(0.994691 -0.00163885 0)
(0.995106 0.0060778 0)
(0.998566 0.00120732 0)
(0.997951 0.00435047 0)
(1.00136 0.00395561 0)
(1.00424 0.000228535 0)
(1.00242 -0.00108798 0)
(1.00163 -0.00460082 0)
(0.999445 -0.00470668 0)
(0.996333 -0.00548076 0)
(0.993566 -0.00448796 0)
(0.991116 -0.00137902 0)
(0.989422 0.00141342 0)
(1.00142 -0.00368778 0)
(0.99767 -0.00102584 0)
(0.992951 -0.00218851 0)
(0.995842 0.00277515 0)
(1.00111 8.67324e-05 0)
(0.996883 -0.00458245 0)
(0.994347 0.000173018 0)
(0.994872 -0.0015958 0)
(0.99522 0.00583819 0)
(0.998581 0.00128417 0)
(0.998088 0.00406143 0)
(1.00127 0.00394118 0)
(1.00408 5.06392e-05 0)
(1.00225 -0.000929221 0)
(1.00148 -0.00441569 0)
(0.999414 -0.00454512 0)
(0.996357 -0.00496926 0)
(0.993806 -0.00420588 0)
(0.991497 -0.00108265 0)
(0.989878 0.0017105 0)
(1.00136 -0.00357722 0)
(0.997717 -0.00108805 0)
(0.993053 -0.00205149 0)
(0.995918 0.00258744 0)
(1.00099 0.000124539 0)
(0.996919 -0.00446865 0)
(0.994438 0.000211698 0)
(0.995053 -0.0015454 0)
(0.995322 0.00557891 0)
(0.998571 0.00137778 0)
(0.998209 0.00375467 0)
(1.00116 0.00393642 0)
(1.00392 -0.000115406 0)
(1.00208 -0.000799984 0)
(1.00134 -0.00417872 0)
(0.999407 -0.00440741 0)
(0.996403 -0.00445681 0)
(0.994059 -0.00388001 0)
(0.991911 -0.000852733 0)
(0.990335 0.00200751 0)
(1.00131 -0.00345966 0)
(0.997766 -0.00116061 0)
(0.993154 -0.00190427 0)
(0.995996 0.00239287 0)
(1.00087 0.000167541 0)
(0.996964 -0.00435642 0)
(0.994536 0.00024561 0)
(0.995235 -0.00148593 0)
(0.995422 0.00529833 0)
(0.998546 0.00148539 0)
(0.998323 0.00344037 0)
(1.00104 0.00392432 0)
(1.00375 -0.000258153 0)
(1.00192 -0.000708518 0)
(1.00118 -0.003891 0)
(0.999418 -0.00428626 0)
(0.996469 -0.00396276 0)
(0.994312 -0.00350642 0)
(0.992349 -0.00069015 0)
(0.990795 0.00227851 0)
(1.00126 -0.00333512 0)
(0.997818 -0.00124316 0)
(0.993256 -0.00174814 0)
(0.996075 0.00219274 0)
(1.00075 0.000212831 0)
(0.997012 -0.00424119 0)
(0.99464 0.000269864 0)
(0.995415 -0.00141153 0)
(0.995523 0.00499679 0)
(0.99851 0.00160263 0)
(0.998435 0.00312171 0)
(1.00091 0.00390316 0)
(1.00358 -0.000362793 0)
(1.00177 -0.000660289 0)
(1.00103 -0.00356176 0)
(0.999442 -0.00416668 0)
(0.996556 -0.00350925 0)
(0.994555 -0.00309214 0)
(0.9928 -0.000569625 0)
(0.991261 0.00250121 0)
(1.0012 -0.00320387 0)
(0.997875 -0.00133461 0)
(0.99336 -0.00158448 0)
(0.996154 0.00199018 0)
(1.00064 0.000256236 0)
(0.997063 -0.0041191 0)
(0.994749 0.000283793 0)
(0.995594 -0.00132072 0)
(0.99563 0.00468022 0)
(0.998467 0.00172673 0)
(0.998546 0.00280477 0)
(1.00079 0.00386083 0)
(1.0034 -0.000419639 0)
(1.00164 -0.000653823 0)
(1.00087 -0.00320286 0)
(0.999475 -0.0040271 0)
(0.996666 -0.00310657 0)
(0.994788 -0.00264313 0)
(0.993255 -0.000463528 0)
(0.991738 0.00265689 0)
(1.00115 -0.00306575 0)
(0.997935 -0.00143501 0)
(0.993467 -0.00141371 0)
(0.996235 0.0017866 0)
(1.00054 0.000299131 0)
(0.997115 -0.00399161 0)
(0.994862 0.000281644 0)
(0.99577 -0.00121313 0)
(0.995744 0.0043506 0)
(0.99842 0.00185108 0)
(0.998655 0.00250076 0)
(1.00067 0.00378435 0)
(1.00321 -0.000425518 0)
(1.00153 -0.000680549 0)
(1.00071 -0.00282629 0)
(0.999512 -0.00385338 0)
(0.996801 -0.00274795 0)
(0.99501 -0.00217333 0)
(0.993704 -0.000345458 0)
(0.99223 0.00273513 0)
(1.0011 -0.00292135 0)
(0.998001 -0.00154306 0)
(0.993576 -0.00123823 0)
(0.996316 0.00158337 0)
(1.00044 0.000339128 0)
(0.99717 -0.00385223 0)
(0.994981 0.000259661 0)
(0.995944 -0.00108892 0)
(0.995866 0.00400922 0)
(0.99837 0.0019692 0)
(0.99876 0.0022186 0)
(1.00056 0.00367315 0)
(1.00302 -0.000388783 0)
(1.00143 -0.000722916 0)
(1.00055 -0.00244808 0)
(0.99955 -0.00364086 0)
(0.996961 -0.00243841 0)
(0.995225 -0.00170511 0)
(0.994137 -0.000201997 0)
(0.99274 0.0027416 0)
(1.00104 -0.00277055 0)
(0.998073 -0.00165944 0)
(0.99369 -0.00105906 0)
(0.996398 0.00138448 0)
(1.00034 0.00036889 0)
(0.997225 -0.00369857 0)
(0.995107 0.000220514 0)
(0.996115 -0.000951315 0)
(0.995997 0.00366422 0)
(0.998321 0.00207252 0)
(0.998859 0.00196749 0)
(1.00046 0.00352929 0)
(1.00283 -0.000321083 0)
(1.00135 -0.000769062 0)
(1.00041 -0.00208398 0)
(0.999584 -0.00338914 0)
(0.997146 -0.00217576 0)
(0.995438 -0.00125359 0)
(0.994547 -2.7836e-05 0)
(0.993264 0.00268671 0)
(1.00099 -0.00261367 0)
(0.998151 -0.00178321 0)
(0.993807 -0.000878451 0)
(0.99648 0.00119302 0)
(1.00026 0.000387499 0)
(0.99728 -0.00352851 0)
(0.995239 0.000160622 0)
(0.996284 -0.000803927 0)
(0.996136 0.00332383 0)
(0.998274 0.00215447 0)
(0.998951 0.001748 0)
(1.00037 0.00335556 0)
(1.00263 -0.000224835 0)
(1.00128 -0.00081178 0)
(1.00028 -0.00173952 0)
(0.999611 -0.00309544 0)
(0.997352 -0.00194927 0)
(0.995654 -0.000830473 0)
(0.994928 0.000185818 0)
(0.993797 0.00259429 0)
(1.00093 -0.00245179 0)
(0.998234 -0.00191119 0)
(0.99393 -0.000701753 0)
(0.996563 0.00101358 0)
(1.00017 0.000391806 0)
(0.997336 -0.00333787 0)
(0.995377 8.25216e-05 0)
(0.99645 -0.000651394 0)
(0.996282 0.00299571 0)
(0.998232 0.00220875 0)
(0.999034 0.00156352 0)
(1.00029 0.00315545 0)
(1.00243 -0.000104212 0)
(1.00122 -0.000838154 0)
(1.00016 -0.00141935 0)
(0.99963 -0.00275985 0)
(0.997575 -0.00175164 0)
(0.995881 -0.000462068 0)
(0.995276 0.000435325 0)
(0.994327 0.00248897 0)
(1.00087 -0.00228499 0)
(0.998324 -0.00204225 0)
(0.994058 -0.000530731 0)
(0.996645 0.000851031 0)
(1.0001 0.000377556 0)
(0.99739 -0.00313092 0)
(0.99552 -5.03566e-06 0)
(0.996613 -0.000501406 0)
(0.996434 0.00268512 0)
(0.998196 0.00222973 0)
(0.999108 0.00141749 0)
(1.00022 0.00293924 0)
(1.00222 2.7561e-05 0)
(1.00117 -0.000837477 0)
(1.00007 -0.00112903 0)
(0.999639 -0.0023956 0)
(0.997807 -0.00157131 0)
(0.996123 -0.000149365 0)
(0.995593 0.000724548 0)
(0.99484 0.00240483 0)
(1.00082 -0.00211461 0)
(0.99842 -0.00217433 0)
(0.994193 -0.000366907 0)
(0.996727 0.000708767 0)
(1.00003 0.000343696 0)
(0.997443 -0.00290691 0)
(0.995669 -0.000104085 0)
(0.996775 -0.000358648 0)
(0.99659 0.00240043 0)
(0.998168 0.00221634 0)
(0.999175 0.00130605 0)
(1.00017 0.0027197 0)
(1.00203 0.000161589 0)
(1.00113 -0.000808569 0)
(0.999993 -0.000865966 0)
(0.999638 -0.00201763 0)
(0.998042 -0.00139064 0)
(0.996389 0.000117348 0)
(0.995886 0.00103299 0)
(0.995318 0.00237622 0)
(1.00076 -0.0019413 0)
(0.998523 -0.00230617 0)
(0.994333 -0.000216184 0)
(0.996808 0.000589089 0)
(0.999977 0.000290515 0)
(0.997496 -0.00267055 0)
(0.995822 -0.000205684 0)
(0.996936 -0.000231773 0)
(0.996748 0.00214751 0)
(0.998149 0.00216904 0)
(0.999235 0.0012251 0)
(1.00013 0.0025067 0)
(1.00184 0.000297867 0)
(1.00109 -0.000753344 0)
(0.999941 -0.000633869 0)
(0.999629 -0.0016383 0)
(0.998275 -0.00120571 0)
(0.996677 0.000322554 0)
(0.996162 0.00131732 0)
(0.995751 0.00241689 0)
(1.0007 -0.0017655 0)
(0.998632 -0.00243505 0)
(0.994482 -8.43722e-05 0)
(0.996887 0.000495397 0)
(0.999932 0.000217878 0)
(0.997549 -0.00242665 0)
(0.995977 -0.000302083 0)
(0.997096 -0.000129698 0)
(0.996905 0.00192738 0)
(0.99814 0.00209217 0)
(0.999289 0.00116887 0)
(1.0001 0.00230742 0)
(1.00165 0.000429507 0)
(1.00106 -0.000681843 0)
(0.99991 -0.000435923 0)
(0.999614 -0.0012627 0)
(0.998497 -0.00100916 0)
(0.996986 0.000474622 0)
(0.996438 0.00155951 0)
(0.996136 0.00251712 0)
(1.00065 -0.00158921 0)
(0.998746 -0.00255839 0)
(0.994639 2.81119e-05 0)
(0.996963 0.000429089 0)
(0.999897 0.000128661 0)
(0.997603 -0.00217712 0)
(0.996133 -0.000391656 0)
(0.997257 -5.4736e-05 0)
(0.997061 0.0017445 0)
(0.998139 0.00199736 0)
(0.99934 0.00112739 0)
(1.00008 0.00213616 0)
(1.00148 0.000556635 0)
(1.00104 -0.000598298 0)
(0.999903 -0.000269311 0)
(0.999599 -0.000889762 0)
(0.998705 -0.000791188 0)
(0.997309 0.00059216 0)
(0.996722 0.00175181 0)
(0.996482 0.00264421 0)
(1.00059 -0.00141399 0)
(0.998866 -0.00267103 0)
(0.994806 0.000117321 0)
(0.997035 0.000386699 0)
(0.999872 2.81587e-05 0)
(0.99766 -0.00192952 0)
(0.99629 -0.000461546 0)
(0.997421 -9.12936e-06 0)
(0.997216 0.00159921 0)
(0.998146 0.00189318 0)
(0.99939 0.00108985 0)
(1.00008 0.00199582 0)
(1.00131 0.000678455 0)
(1.00101 -0.00050499 0)
(0.99992 -0.000136796 0)
(0.999587 -0.000539411 0)
(0.998892 -0.000555516 0)
(0.997641 0.000679882 0)
(0.997022 0.00189379 0)
(0.9968 0.00276942 0)
(1.00053 -0.00124022 0)
(0.998991 -0.00277326 0)
(0.994984 0.000184372 0)
(0.997103 0.000368089 0)
(0.999858 -8.38429e-05 0)
(0.99772 -0.00168572 0)
(0.996444 -0.000509105 0)
(0.997587 3.8353e-06 0)
(0.997368 0.00148465 0)
(0.998158 0.00179034 0)
(0.99944 0.00104731 0)
(1.00008 0.00187071 0)
(1.00116 0.000795538 0)
(1.00098 -0.00040042 0)
(0.999961 -3.8642e-05 0)
(0.999587 -0.000223385 0)
(0.999057 -0.000298681 0)
(0.997972 0.000752455 0)
(0.997339 0.00198579 0)
(0.997101 0.00287998 0)
(1.00048 -0.00107037 0)
(0.999119 -0.00286149 0)
(0.995174 0.000228439 0)
(0.997168 0.000371355 0)
(0.999852 -0.000203062 0)
(0.997783 -0.00145369 0)
(0.996594 -0.00053176 0)
(0.997758 -1.25756e-05 0)
(0.997522 0.0013964 0)
(0.998174 0.00170307 0)
(0.99949 0.000990375 0)
(1.0001 0.0017549 0)
(1.00101 0.000923202 0)
(1.00094 -0.00027903 0)
(1.00002 3.46302e-05 0)
(0.999603 5.64443e-05 0)
(0.999199 -2.86288e-05 0)
(0.998291 0.000829075 0)
(0.997675 0.00202972 0)
(0.997398 0.00296718 0)
(1.00043 -0.000905239 0)
(0.99925 -0.00293077 0)
(0.995377 0.000243956 0)
(0.997229 0.000395415 0)
(0.999856 -0.000327173 0)
(0.997853 -0.00123706 0)
(0.996737 -0.000524184 0)
(0.997932 -5.06874e-05 0)
(0.997678 0.00132212 0)
(0.998191 0.00164009 0)
(0.99954 0.000932169 0)
(1.00014 0.00164131 0)
(1.00087 0.00105089 0)
(1.00089 -0.000138882 0)
(1.0001 9.35586e-05 0)
(0.999641 0.0002909 0)
(0.999324 0.000248547 0)
(0.998591 0.000929863 0)
(0.998023 0.00203788 0)
(0.9977 0.00301586 0)
(1.00037 -0.000747457 0)
(0.999382 -0.00298117 0)
(0.995594 0.000236282 0)
(0.997286 0.000439751 0)
(0.999868 -0.000456088 0)
(0.997931 -0.0010409 0)
(0.996872 -0.000482813 0)
(0.998109 -0.000106267 0)
(0.997842 0.0012548 0)
(0.998208 0.00161013 0)
(0.999586 0.000876391 0)
(1.00019 0.00150666 0)
(1.00076 0.00115972 0)
(1.00083 3.26535e-05 0)
(1.00018 0.000143436 0)
(0.999706 0.000479287 0)
(0.999439 0.000529161 0)
(0.998862 0.00106475 0)
(0.998373 0.00203058 0)
(0.998016 0.00301381 0)
(1.00032 -0.00059789 0)
(0.999514 -0.00300822 0)
(0.995824 0.000200054 0)
(0.997339 0.00050351 0)
(0.999887 -0.000583668 0)
(0.99802 -0.00087305 0)
(0.996996 -0.000403494 0)
(0.998287 -0.000170878 0)
(0.998016 0.00118203 0)
(0.998225 0.00161726 0)
(0.999622 0.000834973 0)
(1.00026 0.0013482 0)
(1.00066 0.00125264 0)
(1.00076 0.000230013 0)
(1.00027 0.000196333 0)
(0.999803 0.000616384 0)
(0.999555 0.000783861 0)
(0.999102 0.00122668 0)
(0.998708 0.00202862 0)
(0.99835 0.00296111 0)
(1.00028 -0.000458863 0)
(0.999644 -0.00300672 0)
(0.996068 0.000133316 0)
(0.99739 0.000584191 0)
(0.999911 -0.000709443 0)
(0.998124 -0.000736052 0)
(0.997111 -0.000284866 0)
(0.998459 -0.00023372 0)
(0.998205 0.00108209 0)
(0.998246 0.00165046 0)
(0.999641 0.000822056 0)
(1.00034 0.0011777 0)
(1.0006 0.00131287 0)
(1.00068 0.00044159 0)
(1.00035 0.000271665 0)
(0.999925 0.000701354 0)
(0.999683 0.000988512 0)
(0.999315 0.00140298 0)
(0.999016 0.00205748 0)
(0.998693 0.00287715 0)
(1.00023 -0.000333146 0)
(0.999769 -0.0029721 0)
(0.996326 3.63197e-05 0)
(0.997437 0.000676578 0)
(0.999937 -0.000822063 0)
(0.998246 -0.000639747 0)
(0.997216 -0.000135843 0)
(0.998621 -0.000280232 0)
(0.99841 0.000953455 0)
(0.998275 0.00169132 0)
(0.99964 0.000850218 0)
(1.00044 0.00101079 0)
(1.00058 0.00132295 0)
(1.0006 0.000657765 0)
(1.00041 0.000382664 0)
(1.00006 0.000762657 0)
(0.999832 0.00114355 0)
(0.999514 0.00156747 0)
(0.999289 0.00212509 0)
(0.999028 0.00279582 0)
(1.00019 -0.000221465 0)
(0.999888 -0.00290098 0)
(0.996597 -9.38878e-05 0)
(0.997485 0.000776654 0)
(0.999961 -0.000911259 0)
(0.998387 -0.000594189 0)
(0.997316 4.6088e-05 0)
(0.998767 -0.000293577 0)
(0.998631 0.000793743 0)
(0.998321 0.00172089 0)
(0.999617 0.000929891 0)
(1.00053 0.000863058 0)
(1.0006 0.00128547 0)
(1.00054 0.000862792 0)
(1.00046 0.000524394 0)
(1.00021 0.000814423 0)
(1 0.00125208 0)
(0.999713 0.00169723 0)
(0.99953 0.0022111 0)
(0.999336 0.00274788 0)
(1.00015 -0.000125888 0)
(0.999998 -0.00279238 0)
(0.99688 -0.000249314 0)
(0.997534 0.000875058 0)
(0.999978 -0.000966136 0)
(0.998551 -0.000604821 0)
(0.997416 0.000238447 0)
(0.998888 -0.000254972 0)
(0.998864 0.000617889 0)
(0.998394 0.00172146 0)
(0.999576 0.00104484 0)
(1.00061 0.000758159 0)
(1.00066 0.00120138 0)
(1.00049 0.00103536 0)
(1.00048 0.000696471 0)
(1.00035 0.000876123 0)
(1.00019 0.00132924 0)
(0.99992 0.00179699 0)
(0.999755 0.00229089 0)
(0.999609 0.00273646 0)
(1.00012 -4.70641e-05 0)
(1.0001 -0.00264868 0)
(0.997172 -0.000424463 0)
(0.997588 0.000963883 0)
(0.999983 -0.000968398 0)
(0.998734 -0.000663089 0)
(0.997526 0.000410788 0)
(0.998983 -0.000152704 0)
(0.999101 0.000449596 0)
(0.998499 0.00167546 0)
(0.999525 0.00117793 0)
(1.00066 0.000710053 0)
(1.00075 0.0010923 0)
(1.00049 0.0011574 0)
(1.0005 0.000887129 0)
(1.00048 0.000959398 0)
(1.00038 0.00138188 0)
(1.00014 0.00186805 0)
(0.99997 0.0023514 0)
(0.999851 0.0027408 0)
(1.00009 1.43069e-05 0)
(1.00018 -0.00247389 0)
(0.997471 -0.000607698 0)
(0.997652 0.00102774 0)
(0.999973 -0.000912266 0)
(0.998933 -0.000758479 0)
(0.997653 0.000550057 0)
(0.999051 2.56742e-06 0)
(0.99933 0.000307825 0)
(0.998638 0.00157502 0)
(0.999475 0.0013063 0)
(1.00069 0.000718823 0)
(1.00086 0.000987886 0)
(1.00052 0.0012232 0)
(1.00051 0.00106571 0)
(1.0006 0.00105914 0)
(1.00058 0.00141616 0)
(1.00036 0.00190657 0)
(1.00018 0.00239379 0)
(1.00007 0.00275239 0)
(1.00006 5.93146e-05 0)
(1.00025 -0.00227489 0)
(0.997771 -0.000790136 0)
(0.997731 0.00105332 0)
(0.999945 -0.000791359 0)
(0.99914 -0.000873553 0)
(0.997806 0.000623666 0)
(0.999099 0.000200144 0)
(0.99954 0.000216453 0)
(0.99881 0.00143302 0)
(0.999439 0.00141085 0)
(1.0007 0.000777352 0)
(1.00097 0.000902513 0)
(1.00059 0.00124029 0)
(1.00053 0.00122088 0)
(1.00069 0.00117717 0)
(1.00077 0.00144979 0)
(1.0006 0.0019144 0)
(1.00041 0.00241195 0)
(1.00026 0.00277227 0)
(1.00004 8.8554e-05 0)
(1.0003 -0.0020601 0)
(0.998068 -0.000956297 0)
(0.997829 0.00102963 0)
(0.9999 -0.000618886 0)
(0.999344 -0.00097488 0)
(0.99799 0.0006192 0)
(0.999135 0.000418156 0)
(0.999721 0.000194031 0)
(0.999007 0.0012698 0)
(0.999428 0.0014752 0)
(1.00068 0.000867309 0)
(1.00109 0.000848745 0)
(1.0007 0.00122631 0)
(1.00057 0.00134296 0)
(1.00076 0.00130084 0)
(1.00095 0.00149152 0)
(1.00084 0.00189964 0)
(1.00065 0.00239033 0)
(1.00044 0.00278617 0)
(1.00002 0.000103662 0)
(1.00033 -0.00183603 0)
(0.998355 -0.00109676 0)
(0.997948 0.000957448 0)
(0.999842 -0.00042036 0)
(0.999532 -0.00103279 0)
(0.998207 0.000549633 0)
(0.999173 0.000617608 0)
(0.999867 0.000240503 0)
(0.999217 0.00111755 0)
(0.999448 0.00149105 0)
(1.00064 0.000971801 0)
(1.00118 0.000836469 0)
(1.00084 0.00119703 0)
(1.00064 0.00142983 0)
(1.00083 0.00142082 0)
(1.0011 0.00154825 0)
(1.00108 0.00188711 0)
(1.0009 0.00233585 0)
(1.00063 0.00277045 0)
(1 0.000105643 0)
(1.00035 -0.00160859 0)
(0.998627 -0.00120581 0)
(0.99809 0.000844434 0)
(0.999778 -0.000215248 0)
(0.999698 -0.00102214 0)
(0.998449 0.000430569 0)
(0.999224 0.000766127 0)
(0.999981 0.00033813 0)
(0.999425 0.0010004 0)
(0.999499 0.00147052 0)
(1.00061 0.00106923 0)
(1.00126 0.000855702 0)
(1.001 0.00116103 0)
(1.00074 0.00148037 0)
(1.0009 0.00152755 0)
(1.00123 0.00160967 0)
(1.00129 0.00188482 0)
(1.00117 0.00226916 0)
(1.00085 0.0027039 0)
(0.999988 9.84172e-05 0)
(1.00035 -0.00138561 0)
(0.998878 -0.00127434 0)
(0.998254 0.000695675 0)
(0.999716 -2.70764e-05 0)
(0.999832 -0.000934455 0)
(0.998704 0.000289139 0)
(0.9993 0.000840645 0)
(1.00007 0.000462216 0)
(0.999623 0.00093401 0)
(0.999576 0.00143696 0)
(1.00058 0.00115085 0)
(1.00133 0.000892496 0)
(1.00116 0.00113027 0)
(1.00087 0.00150218 0)
(1.00098 0.00162 0)
(1.00135 0.00167323 0)
(1.00148 0.00188815 0)
(1.00142 0.00221573 0)
(1.0011 0.0026002 0)
(0.99998 8.462e-05 0)
(1.00034 -0.00117501 0)
(0.999103 -0.00130037 0)
(0.998434 0.00052633 0)
(0.999665 0.000132982 0)
(0.999933 -0.000789338 0)
(0.998957 0.000162919 0)
(0.999403 0.000838505 0)
(1.00015 0.000586661 0)
(0.999806 0.000920499 0)
(0.99967 0.00140915 0)
(1.00055 0.00121934 0)
(1.00137 0.000939775 0)
(1.00132 0.0011053 0)
(1.00103 0.0014988 0)
(1.00106 0.00168924 0)
(1.00145 0.00174015 0)
(1.00165 0.00188984 0)
(1.00164 0.00217685 0)
(1.00135 0.002496 0)
(0.999973 6.68526e-05 0)
(1.00032 -0.00098309 0)
(0.999299 -0.00128035 0)
(0.998628 0.000345016 0)
(0.999633 0.00025596 0)
(1 -0.000610009 0)
(0.999193 8.19734e-05 0)
(0.999531 0.000782332 0)
(1.00023 0.000673751 0)
(0.999974 0.000935004 0)
(0.999773 0.0013976 0)
(1.00054 0.00128277 0)
(1.0014 0.001002 0)
(1.00148 0.0010875 0)
(1.00121 0.00147552 0)
(1.00117 0.0017281 0)
(1.00154 0.00180587 0)
(1.0018 0.00189585 0)
(1.00185 0.00213529 0)
(1.00159 0.00241346 0)
(0.999969 4.93959e-05 0)
(1.00029 -0.000818504 0)
(0.999464 -0.0012156 0)
(0.998827 0.000166896 0)
(0.999624 0.000328401 0)
(1.00005 -0.000418995 0)
(0.999403 5.93203e-05 0)
(0.99967 0.000712776 0)
(1.00032 0.00070529 0)
(1.00014 0.000953579 0)
(0.999884 0.00140177 0)
(1.00052 0.00134405 0)
(1.00141 0.00107138 0)
(1.00162 0.00108097 0)
(1.0014 0.00143422 0)
(1.00131 0.00173633 0)
(1.00162 0.00185954 0)
(1.00192 0.00191962 0)
(1.00204 0.00209106 0)
(1.0018 0.00234793 0)
(0.999966 3.40744e-05 0)
(1.00026 -0.000681274 0)
(0.9996 -0.00111804 0)
(0.999024 1.32086e-05 0)
(0.999642 0.000352256 0)
(1.00009 -0.000235333 0)
(0.999584 8.86086e-05 0)
(0.99981 0.000653706 0)
(1.00042 0.00069692 0)
(1.0003 0.000948091 0)
(1 0.00141204 0)
(1.00052 0.00141489 0)
(1.0014 0.00114624 0)
(1.00173 0.00109284 0)
(1.0016 0.00138502 0)
(1.00147 0.00171305 0)
(1.00172 0.00188458 0)
(1.00202 0.00195038 0)
(1.0022 0.00205235 0)
(1.00201 0.00227386 0)
(0.999965 2.20669e-05 0)
(1.00023 -0.00056885 0)
(0.99971 -0.000999661 0)
(0.999212 -0.000107224 0)
(0.999684 0.000338427 0)
(1.00012 -7.32967e-05 0)
(0.999737 0.000152182 0)
(0.999938 0.000622844 0)
(1.00052 0.000676591 0)
(1.00047 0.000906684 0)
(1.00014 0.00140445 0)
(1.00052 0.00148896 0)
(1.00137 0.00123434 0)
(1.00182 0.00111958 0)
(1.00179 0.00134232 0)
(1.00165 0.00166652 0)
(1.00184 0.00187706 0)
(1.0021 0.00197202 0)
(1.00233 0.00203298 0)
(1.0022 0.00219073 0)
(0.999964 1.50762e-05 0)
(1.0002 -0.000480113 0)
(0.999798 -0.000869918 0)
(0.999386 -0.000185934 0)
(0.999747 0.00029369 0)
(1.00016 5.98416e-05 0)
(0.99987 0.000234313 0)
(1.00005 0.00062819 0)
(1.00061 0.000664976 0)
(1.00064 0.000845898 0)
(1.0003 0.00135913 0)
(1.00054 0.00154583 0)
(1.00133 0.00133723 0)
(1.00187 0.00116173 0)
(1.00196 0.001308 0)
(1.00184 0.00160775 0)
(1.00198 0.00183886 0)
(1.00219 0.00196649 0)
(1.00243 0.00202671 0)
(1.00236 0.00211265 0)
(0.999964 1.24372e-05 0)
(1.00018 -0.000408778 0)
(0.999868 -0.000739451 0)
(0.99954 -0.000216655 0)
(0.999826 0.000239399 0)
(1.00021 0.000153403 0)
(0.999987 0.000320884 0)
(1.00015 0.000654202 0)
(1.00068 0.000674808 0)
(1.0008 0.000789143 0)
(1.00048 0.00127579 0)
(1.00058 0.00156714 0)
(1.00128 0.00143826 0)
(1.00188 0.00123163 0)
(1.0021 0.00128749 0)
(1.00203 0.00154567 0)
(1.00213 0.00178194 0)
(1.0023 0.00192821 0)
(1.00251 0.00201565 0)
(1.00249 0.00205342 0)
(0.999965 1.26511e-05 0)
(1.00016 -0.000348429 0)
(0.999927 -0.000616973 0)
(0.999675 -0.000209291 0)
(0.999911 0.000197537 0)
(1.00027 0.000207822 0)
(1.0001 0.000397194 0)
(1.00024 0.000691056 0)
(1.00073 0.000710104 0)
(1.00093 0.000754169 0)
(1.00067 0.00117208 0)
(1.00067 0.00154178 0)
(1.00124 0.00151414 0)
(1.00187 0.00131943 0)
(1.0022 0.00129015 0)
(1.0022 0.00148386 0)
(1.00229 0.00171491 0)
(1.00242 0.00186339 0)
(1.00258 0.0019795 0)
(1.00258 0.00201074 0)
(0.999967 1.62939e-05 0)
(1.00014 -0.000297749 0)
(0.999977 -0.000506596 0)
(0.999793 -0.000173834 0)
(0.999996 0.000170974 0)
(1.00034 0.00024021 0)
(1.00021 0.000451792 0)
(1.00032 0.00073341 0)
(1.00077 0.000759685 0)
(1.00104 0.000747964 0)
(1.00087 0.0010762 0)
(1.00079 0.00147206 0)
(1.00123 0.00155471 0)
(1.00183 0.00140174 0)
(1.00225 0.00132321 0)
(1.00235 0.00143455 0)
(1.00244 0.00164311 0)
(1.00254 0.00178664 0)
(1.00267 0.00191054 0)
(1.00264 0.00196687 0)
(0.999969 2.02448e-05 0)
(1.00013 -0.000248465 0)
(1.00002 -0.000411662 0)
(0.999896 -0.000121224 0)
(1.00008 0.000170842 0)
(1.00041 0.000260743 0)
(1.00032 0.000482965 0)
(1.00041 0.000768696 0)