/*--------------------------------*- C++ -*----------------------------------*\
| =========                 |                                                 |
| \\      /  F ield         | OpenFOAM: The Open Source CFD Toolbox           |
|  \\    /   O peration     | Version:  3.0.1                                 |
|   \\  /    A nd           | Web:      www.OpenFOAM.org                      |
|    \\/     M anipulation  |                                                 |
\*---------------------------------------------------------------------------*/
FoamFile
{
    version     2.0;
    format      ascii;
    class       volScalarField;
    location    "2.3";
    object      p;
}
// * * * * * * * * * * * * * * * * * * * * * * * * * * * * * * * * * * * * * //

dimensions      [0 2 -2 0 0 0 0];

internalField   nonuniform List<scalar> 
9600
(
-3.86328e-11
-0.00117233
-0.00267459
-0.00107631
-0.000286413
-0.00231605
-0.00106851
0.000735717
-0.000185915
0.00017151
-1.08624e-05
-0.00122007
-0.00124141
-0.000186991
0.000481035
0.00177491
0.00233112
0.00451099
0.00632783
0.0114578
-4.61001e-07
-0.00117433
-0.0026657
-0.00108786
-0.000296697
-0.00230064
-0.0010622
0.0007267
-0.000180388
0.000136081
-1.00629e-05
-0.00122615
-0.00124308
-0.000180841
0.000484625
0.00176939
0.00234756
0.00448947
0.006344
0.0110248
-1.77851e-06
-0.00117634
-0.00265498
-0.00110275
-0.000305517
-0.00228418
-0.00105893
0.000712813
-0.000175426
9.59322e-05
-6.82078e-06
-0.00122297
-0.00124386
-0.000171353
0.000489134
0.00176178
0.00236642
0.00445589
0.00634068
0.0105235
-4.1661e-06
-0.0011788
-0.00264327
-0.00111196
-0.000315497
-0.00226835
-0.00105605
0.000694188
-0.000172708
5.2829e-05
-4.33238e-06
-0.00120504
-0.00124855
-0.000161354
0.000494185
0.0017497
0.0023864
0.00440985
0.00631703
0.0100439
-7.85481e-06
-0.00118188
-0.00262797
-0.00111598
-0.000329188
-0.00225089
-0.00105199
0.00067031
-0.000169633
5.90517e-06
-1.74653e-06
-0.00117762
-0.00125501
-0.000151198
0.000500308
0.00173407
0.00240605
0.0043538
0.00627119
0.00958892
-1.28116e-05
-0.00118516
-0.0026086
-0.00111682
-0.000346204
-0.0022305
-0.00104685
0.000642699
-0.000165282
-4.44838e-05
2.99563e-06
-0.00114394
-0.00125971
-0.000141602
0.000508327
0.00171545
0.00242372
0.00428994
0.00620421
0.00917274
-1.87634e-05
-0.00118843
-0.00258581
-0.0011157
-0.00036533
-0.00220713
-0.00104093
0.0006131
-0.000159707
-9.7154e-05
1.02368e-05
-0.00110592
-0.00126116
-0.000132902
0.000518253
0.00169447
0.00243818
0.00422042
0.00611358
0.00875357
-2.53836e-05
-0.0011916
-0.00256039
-0.00111367
-0.000385435
-0.00218127
-0.0010344
0.000582555
-0.000152862
-0.000151481
1.9173e-05
-0.00106489
-0.00125898
-0.000124971
0.0005293
0.00167239
0.00244783
0.00414581
0.00599917
0.00834931
-3.24031e-05
-0.00119472
-0.00253309
-0.00111157
-0.000405661
-0.00215365
-0.00102738
0.000551528
-0.000144795
-0.000207242
2.90551e-05
-0.00102154
-0.00125325
-0.000117759
0.000540485
0.00165044
0.00245062
0.00406632
0.00586318
0.00795789
-3.96532e-05
-0.00119791
-0.00250445
-0.00110979
-0.000425616
-0.00212496
-0.00101999
0.000520132
-0.000135753
-0.000264144
3.93538e-05
-0.000976336
-0.00124457
-0.000111123
0.000550981
0.00162932
0.00244476
0.0039822
0.00570809
0.0075749
-4.70554e-05
-0.00120131
-0.00247477
-0.00110853
-0.000445247
-0.00209569
-0.00101236
0.000488333
-0.000126103
-0.000321779
4.9564e-05
-0.000929774
-0.00123387
-0.000104511
0.000559699
0.00160932
0.00242964
0.00389309
0.00553592
0.00719638
-5.45791e-05
-0.001205
-0.00244413
-0.00110783
-0.000464617
-0.0020661
-0.00100462
0.000456076
-0.000116265
-0.000379694
5.92042e-05
-0.000882287
-0.00122212
-9.72335e-05
0.000565415
0.00159064
0.00240528
0.00379743
0.00534949
0.00681981
-6.22066e-05
-0.00120903
-0.00241256
-0.0011077
-0.000483768
-0.00203632
-0.000996929
0.000423331
-0.000106639
-0.000437405
6.77446e-05
-0.000834072
-0.00121029
-8.88099e-05
0.000567418
0.00157314
0.00237174
0.00369257
0.00515296
0.00644488
-6.99179e-05
-0.00121339
-0.00238009
-0.00110811
-0.000502709
-0.00200633
-0.000989457
0.000390109
-9.75642e-05
-0.000494409
7.45613e-05
-0.000785096
-0.00119926
-7.88601e-05
0.000565344
0.001556
0.00232985
0.00357556
0.00495014
0.00607273
-7.76906e-05
-0.00121806
-0.00234674
-0.00110904
-0.000521428
-0.00197606
-0.000982381
0.000356482
-8.93367e-05
-0.000550229
7.90645e-05
-0.000735181
-0.00118988
-6.69572e-05
0.000559092
0.00153753
0.0022816
0.00344373
0.00474274
0.00570471
-8.55028e-05
-0.00122303
-0.00231252
-0.00111044
-0.00053993
-0.00194541
-0.000975891
0.00032257
-8.2249e-05
-0.000604392
8.0688e-05
-0.000684093
-0.00118283
-5.30683e-05
0.000549225
0.00151525
0.00222951
0.00329544
0.00452998
0.00534423
-9.33373e-05
-0.00122827
-0.00227746
-0.00111229
-0.000558236
-0.00191427
-0.000970194
0.000288549
-7.6597e-05
-0.000656433
7.88218e-05
-0.000631564
-0.00117854
-3.76887e-05
0.00053687
0.00148601
0.00217571
0.00313067
0.00431587
0.00499566
-0.000101183
-0.00123376
-0.00224163
-0.00111457
-0.000576392
-0.00188251
-0.000965549
0.000254631
-7.26437e-05
-0.000705962
7.29232e-05
-0.000577363
-0.00117731
-2.16704e-05
0.000523751
0.00144648
0.00212089
0.00295097
0.00408975
0.00466299
-0.00010903
-0.00123948
-0.00220509
-0.00111724
-0.000594482
-0.00184992
-0.000962208
0.000220982
-7.06588e-05
-0.000752622
6.25726e-05
-0.000521486
-0.00117904
-6.58023e-06
0.00051207
0.0013942
0.00206439
0.00275983
0.00384883
0.00434806
-0.00011688
-0.00124537
-0.00216793
-0.0011202
-0.000612627
-0.00181632
-0.000960396
0.000187736
-7.09117e-05
-0.000796083
4.74765e-05
-0.000464176
-0.00118308
5.40301e-06
0.000503738
0.00132813
0.00200461
0.00256209
0.00358999
0.00405013
-0.000124744
-0.00125136
-0.00213029
-0.00112335
-0.000630991
-0.00178149
-0.000960355
0.000154982
-7.35444e-05
-0.000836207
2.75903e-05
-0.00040595
-0.00118861
1.22787e-05
0.000499953
0.00124781
0.00193866
0.00236314
0.00331215
0.00376638
-0.000132644
-0.00125735
-0.00209234
-0.00112652
-0.000649776
-0.00174527
-0.000962222
0.000122754
-7.86785e-05
-0.000873051
3.03058e-06
-0.000347604
-0.00119454
1.21736e-05
0.000501127
0.00115428
0.00186277
0.00216798
0.00301655
0.00349139
-0.000140623
-0.00126322
-0.00205427
-0.0011295
-0.000669186
-0.00170753
-0.000966086
9.10518e-05
-8.6285e-05
-0.000906937
-2.58107e-05
-0.000289972
-0.00120001
3.23922e-06
0.000507027
0.00105002
0.00177295
0.00198006
0.00270643
0.00321837
-0.000148731
-0.00126879
-0.00201632
-0.00113208
-0.0006894
-0.00166818
-0.000972068
5.97334e-05
-9.59871e-05
-0.000938421
-5.82375e-05
-0.000233818
-0.00120452
-1.59447e-05
0.000516636
0.000937565
0.00166583
0.00180182
0.00238662
0.0029401
-0.000157034
-0.00127384
-0.00197875
-0.00113402
-0.000710593
-0.0016272
-0.000980042
2.84438e-05
-0.000107401
-0.000968018
-9.39082e-05
-0.000179953
-0.00120743
-4.63906e-05
0.000528354
0.000819667
0.00153888
0.00163442
0.0020633
0.00264933
-0.000165639
-0.00127812
-0.00194189
-0.00113511
-0.000732923
-0.0015847
-0.000989692
-3.35387e-06
-0.000119936
-0.000996321
-0.000132803
-0.000128907
-0.00120827
-8.90787e-05
0.000540569
0.000699665
0.00139018
0.0014773
0.00174435
0.00233916
-0.000174685
-0.00128132
-0.00190603
-0.00113514
-0.000756478
-0.00154084
-0.00100065
-3.63852e-05
-0.000132575
-0.00102378
-0.000175
-8.09171e-05
-0.00120698
-0.000144983
0.00055099
0.00058125
0.00121893
0.00132798
0.00143928
0.00200485
-0.000184337
-0.00128307
-0.00187145
-0.00113406
-0.000781193
-0.0014959
-0.00101228
-7.16308e-05
-0.000144597
-0.00105038
-0.000220905
-3.63654e-05
-0.00120325
-0.000214817
0.000556498
0.000468388
0.00102587
0.0011816
0.00115775
0.00164802
-0.000194778
-0.00128299
-0.0018384
-0.00113179
-0.000807044
-0.00145036
-0.0010236
-0.000110315
-0.000155891
-0.00107574
-0.000271364
4.34236e-06
-0.0011963
-0.000299192
0.000553718
0.000365142
0.000813302
0.00102918
0.00090854
0.00127931
-0.000206205
-0.00128068
-0.00180713
-0.00112827
-0.000835493
-0.00140506
-0.00103345
-0.000153416
-0.000166506
-0.00109902
-0.000327669
4.03956e-05
-0.00118507
-0.00039819
0.00053883
0.00027458
0.000585839
0.000862459
0.000695462
0.000917482
-0.000218861
-0.0012757
-0.00177785
-0.00112364
-0.000865563
-0.00136108
-0.00104066
-0.000201117
-0.000176953
-0.00111929
-0.000390724
7.01892e-05
-0.00116828
-0.000510879
0.000507386
0.000198316
0.000350724
0.000673605
0.00051265
0.000582565
-0.000232998
-0.00126771
-0.00175064
-0.00111827
-0.000893487
-0.00131954
-0.00104439
-0.000253181
-0.000188495
-0.0011355
-0.000460631
9.15243e-05
-0.00114509
-0.00063564
0.000455204
0.000136733
0.000116619
0.0004581
0.000347012
0.000290522
-0.000248825
-0.00125641
-0.00172536
-0.00111271
-0.000919251
-0.00128153
-0.00104414
-0.000308769
-0.000202971
-0.00114713
-0.000537033
0.000101945
-0.00111536
-0.00076946
0.000379186
8.8169e-05
-0.000108327
0.000217304
0.000184267
4.66e-05
-0.000266516
-0.00124155
-0.00170173
-0.00110782
-0.000942001
-0.00124772
-0.00103996
-0.00036645
-0.000222228
-0.00115442
-0.000619204
9.87565e-05
-0.00107944
-0.000908187
0.00027666
4.93696e-05
-0.000317363
-4.37226e-05
1.24506e-05
-0.000156571
-0.00028622
-0.00122305
-0.00167926
-0.00110461
-0.000961345
-0.00121838
-0.00103262
-0.000424334
-0.000247481
-0.00115806
-0.000706298
7.90653e-05
-0.00103835
-0.00104716
0.000147682
1.64934e-05
-0.000505291
-0.000319768
-0.000175816
-0.000331089
-0.000308064
-0.00120103
-0.00165709
-0.00110397
-0.00097685
-0.00119344
-0.00102317
-0.000480829
-0.000279414
-0.00115945
-0.000797459
4.07911e-05
-0.000992124
-0.00118097
-7.02962e-06
-1.60323e-05
-0.00066831
-0.000605526
-0.000385007
-0.000487608
-0.000332032
-0.00117589
-0.0016339
-0.00110646
-0.000988991
-0.00117215
-0.00101275
-0.000535209
-0.000318246
-0.00116014
-0.000891439
-1.67591e-05
-0.000944205
-0.00130386
-0.000186313
-5.69483e-05
-0.000799517
-0.000892862
-0.000619346
-0.000635826
-0.000357976
-0.00114831
-0.00160825
-0.00111211
-0.000999601
-0.00115411
-0.00100252
-0.000587106
-0.000363893
-0.00116151
-0.000986294
-9.28538e-05
-0.000897387
-0.00141125
-0.000387183
-0.000115327
-0.000898342
-0.00116961
-0.00088195
-0.000787553
-0.000385692
-0.00111901
-0.00157924
-0.00112052
-0.00101004
-0.00113953
-0.000993825
-0.000636265
-0.000416003
-0.00116473
-0.00107949
-0.000185356
-0.00085512
-0.00150051
-0.000604742
-0.000200021
-0.000969429
-0.00142258
-0.00117019
-0.000956833
-0.000414828
-0.00108879
-0.00154546
-0.00113101
-0.00102089
-0.00112875
-0.000988443
-0.000683251
-0.000473282
-0.0011702
-0.0011688
-0.000291852
-0.000821737
-0.0015707
-0.000832412
-0.000317078
-0.00102204
-0.0016405
-0.00147342
-0.00115541
-0.000444974
-0.00105835
-0.0015081
-0.00114282
-0.00103275
-0.00112222
-0.000988263
-0.000728865
-0.000534126
-0.00117775
-0.00125301
-0.00041032
-0.000801021
-0.00162159
-0.00106242
-0.000469184
-0.00106818
-0.00181679
-0.00177588
-0.00138813
-0.000475609
-0.0010283
-0.0014673
-0.00115509
-0.00104609
-0.00112028
-0.000994991
-0.000774605
-0.000597399
-0.00118666
-0.00133102
-0.000538938
-0.000796014
-0.00165462
-0.00128704
-0.000655485
-0.00112045
-0.00195172
-0.00206142
-0.00165147
-0.000506122
-0.000999195
-0.00142281
-0.00116658
-0.00106164
-0.00112266
-0.00101032
-0.000822367
-0.000662355
-0.00119522
-0.0014007
-0.00067532
-0.000809429
-0.00167235
-0.00149884
-0.000871721
-0.00119063
-0.00205171
-0.00231699
-0.00193518
-0.000536236
-0.00097131
-0.00137591
-0.00117627
-0.00107838
-0.00112883
-0.00103598
-0.00087831
-0.000728169
-0.00120173
-0.00146054
-0.000816956
-0.000843431
-0.00167856
-0.00169011
-0.00110999
-0.00128753
-0.00212654
-0.00253387
-0.0022244
-0.000565402
-0.000945144
-0.00132724
-0.00118388
-0.00109288
-0.0011383
-0.00107111
-0.000953952
-0.000795185
-0.00120604
-0.00151031
-0.000961392
-0.000899733
-0.00167937
-0.00185522
-0.00136025
-0.00141569
-0.00218819
-0.00270865
-0.00250286
-0.000592744
-0.000921645
-0.00126506
-0.00119012
-0.00111608
-0.0011512
-0.00110891
-0.00102286
-0.000864747
-0.00121178
-0.00155094
-0.00110567
-0.000979415
-0.00168298
-0.00199312
-0.0016113
-0.0015754
-0.00225
-0.00284414
-0.00275712
-0.000617921
-0.000901469
-0.00121456
-0.00119555
-0.00115199
-0.00116631
-0.0011426
-0.0010908
-0.000940718
-0.00122528
-0.00158494
-0.00124734
-0.00108092
-0.00169624
-0.00210617
-0.00185217
-0.00176137
-0.00232293
-0.00294734
-0.00297751
-0.000640549
-0.000884963
-0.00116808
-0.00119921
-0.00118887
-0.00118466
-0.00117141
-0.00115661
-0.0010244
-0.00125069
-0.00161428
-0.00138159
-0.00119979
-0.00172424
-0.00219907
-0.00207534
-0.00196514
-0.00241365
-0.00302821
-0.00315911
-0.000660263
-0.000872215
-0.00112594
-0.00120026
-0.00122561
-0.00120856
-0.00119598
-0.0012184
-0.00111444
-0.00128875
-0.00164084
-0.00150456
-0.00133064
-0.00177023
-0.00227856
-0.0022778
-0.0021781
-0.00252494
-0.00309846
-0.00330276
-0.00067695
-0.000863063
-0.00108919
-0.00119841
-0.00126408
-0.00124021
-0.00122037
-0.00127283
-0.00120607
-0.0013397
-0.0016691
-0.00161644
-0.00146765
-0.00183336
-0.00235084
-0.00245816
-0.00239229
-0.00265593
-0.00316865
-0.00341497
-0.000690541
-0.000857158
-0.00105904
-0.00119393
-0.00130259
-0.00128048
-0.00124678
-0.00131937
-0.00129564
-0.00140327
-0.00170337
-0.00171859
-0.0016053
-0.00191063
-0.00242084
-0.00261821
-0.00260149
-0.00280314
-0.00324581
-0.0035058
-0.000701213
-0.000853798
-0.00103658
-0.00118793
-0.00133873
-0.00132963
-0.00127923
-0.00135935
-0.00137927
-0.00147698
-0.00174655
-0.00181259
-0.00174054
-0.00199985
-0.00249133
-0.00276066
-0.00280093
-0.00296133
-0.00333286
-0.00358474
-0.000709409
-0.000852452
-0.00102217
-0.00118185
-0.00137058
-0.00138565
-0.00132087
-0.00139509
-0.00145403
-0.00155668
-0.00180059
-0.00190258
-0.00187234
-0.00209808
-0.00256284
-0.00288655
-0.0029871
-0.00312537
-0.00343077
-0.00365931
-0.000715847
-0.000852706
-0.00101588
-0.0011774
-0.0013965
-0.00144547
-0.00137362
-0.00143132
-0.00151979
-0.00163722
-0.00186416
-0.00199285
-0.00200055
-0.00220253
-0.00263632
-0.00299697
-0.00315764
-0.00329124
-0.00353914
-0.00373491
-0.000721427
-0.000854036
-0.00101725
-0.00117662
-0.001416
-0.00150489
-0.00143752
-0.00147359
-0.00157835
-0.00171419
-0.001934
-0.0020847
-0.00212626
-0.00231173
-0.00271367
-0.00309496
-0.00330982
-0.00345392
-0.00365546
-0.00381436
-0.000727145
-0.000856237
-0.00102447
-0.00118123
-0.00143022
-0.00156009
-0.00151131
-0.00152619
-0.00163208
-0.00178536
-0.00200644
-0.00217695
-0.00225087
-0.0024253
-0.00279561
-0.00318437
-0.00344249
-0.00360744
-0.00377607
-0.00389765
-0.000733846
-0.000859264
-0.0010357
-0.00119258
-0.00144176
-0.00160859
-0.00159112
-0.00159106
-0.00168582
-0.00185015
-0.0020779
-0.00226859
-0.00237355
-0.00254271
-0.00288195
-0.0032684
-0.00355815
-0.00374767
-0.00389743
-0.00398343
-0.000742193
-0.000863243
-0.00104968
-0.00121114
-0.00145396
-0.00164995
-0.00167127
-0.00166697
-0.00174577
-0.00191022
-0.00214469
-0.00235737
-0.00249265
-0.00266275
-0.00297318
-0.00334906
-0.0036602
-0.00387273
-0.00401547
-0.00407083
-0.000752687
-0.000868652
-0.00106491
-0.00123646
-0.00147035
-0.00168499
-0.00174713
-0.00175151
-0.0018151
-0.00196954
-0.00220591
-0.00243961
-0.00260651
-0.00278366
-0.00306988
-0.00342819
-0.00375077
-0.00398259
-0.00412588
-0.00415897
-0.000765606
-0.000876085
-0.00108075
-0.00126736
-0.00149339
-0.00171579
-0.00181623
-0.00184061
-0.00189354
-0.0020327
-0.00226394
-0.00251286
-0.00271146
-0.00290189
-0.00317104
-0.00350858
-0.0038325
-0.00407868
-0.00422559
-0.00424505
-0.0007811
-0.00088653
-0.00109742
-0.00130201
-0.00152397
-0.00174627
-0.00187794
-0.00192906
-0.00197952
-0.00210202
-0.00232138
-0.00257872
-0.0028043
-0.00301306
-0.00327328
-0.00359157
-0.00390905
-0.00416306
-0.00431355
-0.00432475
-0.000799242
-0.000900592
-0.00111549
-0.00133864
-0.00156171
-0.00178031
-0.0019336
-0.00201238
-0.00207045
-0.00217845
-0.0023804
-0.00263905
-0.00288508
-0.00311339
-0.00337184
-0.00367513
-0.00398282
-0.0042385
-0.00439103
-0.00439561
-0.000820064
-0.000918796
-0.00113578
-0.00137602
-0.00160563
-0.00182008
-0.00198558
-0.00208895
-0.00216149
-0.00226114
-0.00244344
-0.002695
-0.00295489
-0.00320075
-0.00346253
-0.0037554
-0.00405283
-0.00430672
-0.00446004
-0.00445848
-0.000843614
-0.000941356
-0.00115937
-0.00141384
-0.00165412
-0.00186625
-0.00203741
-0.00216
-0.0022479
-0.0023462
-0.00251198
-0.00274942
-0.00301466
-0.00327448
-0.00354198
-0.00382888
-0.00411638
-0.00436637
-0.00452043
-0.00451442
-0.000870108
-0.000968289
-0.00118736
-0.00145274
-0.00170518
-0.00191834
-0.00209186
-0.0022274
-0.00232882
-0.00242926
-0.00258318
-0.00280474
-0.00306596
-0.00333406
-0.00360738
-0.00389224
-0.00417135
-0.00441476
-0.00456917
-0.00456169
-0.000899958
-0.000999386
-0.00122028
-0.00149373
-0.00175773
-0.00197549
-0.00215023
-0.00229275
-0.00240519
-0.00250876
-0.00265325
-0.00285958
-0.00311067
-0.00337973
-0.00365657
-0.00394131
-0.00421561
-0.00445109
-0.00460356
-0.00459719
-0.000933534
-0.00103465
-0.00125811
-0.00153791
-0.00181171
-0.00203656
-0.00221361
-0.00235836
-0.00247712
-0.00258413
-0.00272076
-0.00291085
-0.00314835
-0.00341205
-0.00368802
-0.00397182
-0.00424483
-0.004475
-0.00462363
-0.00461881
-0.000971089
-0.001074
-0.00130082
-0.00158651
-0.00186828
-0.00210036
-0.00228133
-0.00242698
-0.00254655
-0.00265421
-0.00278445
-0.0029572
-0.00317661
-0.00342997
-0.00370035
-0.00397982
-0.00425209
-0.00448153
-0.00462743
-0.00462425
-0.00101299
-0.00111763
-0.00134819
-0.00163966
-0.0019286
-0.00216767
-0.00235295
-0.00249874
-0.0026161
-0.00271983
-0.00284231
-0.00299801
-0.00319452
-0.00343099
-0.00369078
-0.00396117
-0.00422942
-0.00446057
-0.00460765
-0.00460781
-0.00105948
-0.00116581
-0.00140038
-0.00169757
-0.00199281
-0.0022391
-0.00242996
-0.00257473
-0.0026869
-0.00278358
-0.00289431
-0.00303149
-0.00320194
-0.00341189
-0.00365289
-0.00390887
-0.00416787
-0.00439975
-0.00455219
-0.00455998
-0.00111095
-0.00121878
-0.00145726
-0.00176042
-0.00206231
-0.00231546
-0.00251273
-0.00265735
-0.00276149
-0.00284762
-0.00294257
-0.00305634
-0.00319739
-0.00337136
-0.00357961
-0.00381051
-0.0040511
-0.00427936
-0.004442
-0.00446638
-0.00116761
-0.00127756
-0.00151811
-0.00182779
-0.00213816
-0.00239904
-0.00260315
-0.00274895
-0.00284476
-0.00291584
-0.00298939
-0.0030724
-0.00317796
-0.0033086
-0.00346792
-0.00365605
-0.00385848
-0.00406136
-0.00422514
-0.00427891
-0.0012278
-0.00133952
-0.00158428
-0.00190215
-0.0022209
-0.0024898
-0.00270274
-0.00285389
-0.00294641
-0.00300056
-0.00304233
-0.00307952
-0.00313245
-0.00321388
-0.00331936
-0.00345532
-0.00360612
-0.00375261
-0.00387192
-0.00390364
-0.00129085
-0.00140403
-0.00165686
-0.0019836
-0.0023106
-0.00258776
-0.00281116
-0.00297279
-0.00307363
-0.00312679
-0.00314494
-0.00311497
-0.00304442
-0.00297102
-0.00292906
-0.0029601
-0.00309614
-0.00331782
-0.00356428
-0.00374573
-0.00135841
-0.00147809
-0.00173558
-0.00206704
-0.00240098
-0.00268773
-0.00292457
-0.00310304
-0.00322096
-0.00329541
-0.0033563
-0.00340395
-0.00337583
-0.00318331
-0.00280742
-0.00236046
-0.00196615
-0.00167947
-0.00150824
-0.00147475
-0.00143057
-0.00156311
-0.00182578
-0.0021592
-0.00249668
-0.00278792
-0.00303156
-0.00322397
-0.00336094
-0.00342941
-0.00336076
-0.00311262
-0.00278696
-0.0024893
-0.00226793
-0.00210842
-0.00198001
-0.00186913
-0.00178724
-0.00178932
-0.00150386
-0.00162857
-0.00190752
-0.00226649
-0.00263937
-0.00297475
-0.00324587
-0.00339346
-0.00336166
-0.00319461
-0.00299142
-0.00280191
-0.00264102
-0.00247135
-0.00225625
-0.00199026
-0.00167978
-0.0013753
-0.00114265
-0.0010706
-0.00161368
-0.0017459
-0.00196227
-0.00225611
-0.00258574
-0.0028763
-0.00308112
-0.00317853
-0.00318326
-0.00313533
-0.00308745
-0.00305413
-0.00304134
-0.00303602
-0.00296447
-0.00276332
-0.00237826
-0.00182576
-0.00127327
-0.000932096
-0.00167936
-0.00184295
-0.00211724
-0.00243872
-0.00273932
-0.00296936
-0.00311754
-0.00317831
-0.00316862
-0.00309009
-0.00295931
-0.00279469
-0.00258069
-0.00233375
-0.00206094
-0.00177289
-0.00149368
-0.00125431
-0.00110721
-0.00111806
-0.00169944
-0.00183923
-0.00211432
-0.00247066
-0.00282766
-0.0031115
-0.00326105
-0.00325718
-0.00315412
-0.00299102
-0.00281389
-0.00266972
-0.00253987
-0.0024082
-0.00226924
-0.00209925
-0.00189983
-0.00169258
-0.0015368
-0.00151703
0.0160422
0.00883818
-5.54366e-05
-0.0063236
-0.00808229
-0.00747641
-0.00681145
-0.00645765
-0.00610301
-0.00564956
-0.00522521
-0.00494675
-0.00484126
-0.00490006
-0.00503875
-0.005079
-0.00497361
-0.0048658
-0.00485348
-0.00491859
-0.00500364
-0.0050496
-0.00505438
-0.00507807
-0.00514801
-0.0052155
-0.0052272
-0.00519627
-0.0051731
-0.00518124
-0.00520061
-0.00520522
-0.00520138
-0.00521585
-0.00524901
-0.00528063
-0.00530963
-0.00535348
-0.00541167
-0.00545788
-0.00548319
-0.00550688
-0.00553879
-0.00555759
-0.00555735
-0.00556631
-0.00559103
-0.00560751
-0.00562294
-0.00565933
-0.00570084
-0.00571969
-0.00573618
-0.00576208
-0.0057694
-0.00577224
-0.00579762
-0.0058233
-0.00584129
-0.00586445
-0.005882
-0.00588617
-0.00589063
-0.00589916
-0.00591157
-0.00592257
-0.00593499
-0.00594518
-0.00595124
-0.00595459
-0.00595615
-0.00595562
-0.00595734
-0.00596445
-0.00597141
-0.0059742
-0.00597402
-0.0059702
-0.0059687
-0.00596725
-0.00596543
-0.00596409
-0.0059604
-0.0059569
-0.0059518
-0.00594188
-0.00593475
-0.00592322
-0.00591267
-0.00589893
-0.00588239
-0.0058652
-0.00584743
-0.00582731
-0.00580744
-0.00578517
-0.00577077
-0.00574873
-0.00578294
-0.00583546
0.0151433
0.0086785
3.04601e-05
-0.0061784
-0.0079971
-0.0074366
-0.0067892
-0.00644406
-0.00609348
-0.00564166
-0.005218
-0.0049399
-0.00483473
-0.00489418
-0.00503392
-0.00507511
-0.00497014
-0.0048625
-0.00485042
-0.00491583
-0.00500122
-0.00504747
-0.00505238
-0.00507612
-0.00514619
-0.00521386
-0.0052257
-0.00519481
-0.00517168
-0.00517989
-0.00519937
-0.00520407
-0.00520028
-0.0052148
-0.00524802
-0.00527971
-0.00530875
-0.00535264
-0.00541088
-0.00545715
-0.0054825
-0.00550621
-0.00553816
-0.00555701
-0.0055568
-0.00556576
-0.00559052
-0.00560703
-0.00562247
-0.00565887
-0.00570042
-0.00571929
-0.00573579
-0.00576171
-0.00576906
-0.00577189
-0.00579729
-0.00582299
-0.00584099
-0.00586416
-0.00588173
-0.0058859
-0.00589037
-0.00589891
-0.00591133
-0.00592234
-0.00593477
-0.00594497
-0.00595103
-0.00595439
-0.00595596
-0.00595543
-0.00595716
-0.00596428
-0.00597124
-0.00597404
-0.00597387
-0.00597005
-0.00596856
-0.00596711
-0.0059653
-0.00596396
-0.00596027
-0.00595678
-0.00595168
-0.00594177
-0.00593464
-0.00592312
-0.00591256
-0.00589883
-0.0058823
-0.00586511
-0.00584734
-0.00582723
-0.00580735
-0.00578509
-0.0057707
-0.00574866
-0.00578287
-0.00583543
0.0143381
0.00852888
0.000202033
-0.00591772
-0.0078552
-0.00738195
-0.00675909
-0.00642284
-0.00607861
-0.00563108
-0.00521022
-0.00493379
-0.00482919
-0.00488866
-0.00502873
-0.00507062
-0.0049663
-0.0048592
-0.00484749
-0.00491315
-0.00499885
-0.00504543
-0.00505053
-0.00507439
-0.0051446
-0.00521243
-0.00522437
-0.00519351
-0.0051704
-0.00517869
-0.00519826
-0.00520304
-0.00519929
-0.00521386
-0.00524714
-0.00527888
-0.00530796
-0.0053519
-0.0054102
-0.00545652
-0.00548189
-0.00550563
-0.00553762
-0.00555651
-0.00555631
-0.00556528
-0.00559008
-0.00560661
-0.00562205
-0.00565848
-0.00570006
-0.00571895
-0.00573545
-0.0057614
-0.00576876
-0.00577159
-0.005797
-0.00582272
-0.00584073
-0.00586391
-0.0058815
-0.00588568
-0.00589014
-0.00589869
-0.00591112
-0.00592214
-0.00593457
-0.00594478
-0.00595085
-0.00595422
-0.0059558
-0.00595527
-0.005957
-0.00596413
-0.0059711
-0.0059739
-0.00597374
-0.00596993
-0.00596843
-0.005967
-0.00596518
-0.00596385
-0.00596017
-0.00595667
-0.00595158
-0.00594167
-0.00593455
-0.00592303
-0.00591247
-0.00589875
-0.00588221
-0.00586503
-0.00584726
-0.00582716
-0.00580728
-0.00578502
-0.00577063
-0.0057486
-0.0057828
-0.00583541
0.0135733
0.00836453
0.000414414
-0.00558768
-0.00765693
-0.00729916
-0.00670931
-0.00638536
-0.00605207
-0.00561345
-0.00519915
-0.00492709
-0.00482423
-0.00488303
-0.00502189
-0.00506383
-0.00496091
-0.00485529
-0.00484414
-0.00490968
-0.00499544
-0.00504254
-0.00504828
-0.00507253
-0.00514288
-0.0052108
-0.00522287
-0.00519214
-0.00516909
-0.00517739
-0.00519701
-0.00520188
-0.00519821
-0.00521283
-0.00524617
-0.00527797
-0.00530711
-0.0053511
-0.00540948
-0.00545585
-0.00548124
-0.00550501
-0.00553705
-0.00555598
-0.00555579
-0.00556477
-0.00558961
-0.00560616
-0.00562161
-0.00565807
-0.0056997
-0.0057186
-0.0057351
-0.00576108
-0.00576845
-0.00577127
-0.0057967
-0.00582245
-0.00584046
-0.00586366
-0.00588126
-0.00588544
-0.00588991
-0.00589847
-0.00591091
-0.00592194
-0.00593438
-0.0059446
-0.00595067
-0.00595404
-0.00595563
-0.00595511
-0.00595684
-0.00596397
-0.00597095
-0.00597376
-0.0059736
-0.0059698
-0.00596831
-0.00596688
-0.00596507
-0.00596374
-0.00596006
-0.00595657
-0.00595148
-0.00594157
-0.00593445
-0.00592294
-0.00591239
-0.00589867
-0.00588213
-0.00586495
-0.00584718
-0.00582708
-0.00580721
-0.00578495
-0.00577055
-0.00574852
-0.00578271
-0.00583541
0.0128127
0.00817226
0.000635676
-0.00523435
-0.00743302
-0.00720121
-0.00664715
-0.00633425
-0.0060135
-0.0055873
-0.00518313
-0.00491854
-0.00481929
-0.00487709
-0.00501283
-0.00505381
-0.00495325
-0.00485067
-0.00484056
-0.00490527
-0.00499029
-0.00503795
-0.005045
-0.00507012
-0.00514062
-0.00520854
-0.0052209
-0.00519058
-0.00516768
-0.0051759
-0.00519549
-0.00520049
-0.00519695
-0.0052116
-0.00524495
-0.00527681
-0.00530607
-0.00535017
-0.00540861
-0.00545503
-0.00548048
-0.00550429
-0.00553637
-0.00555534
-0.00555517
-0.00556418
-0.00558906
-0.00560564
-0.0056211
-0.0056576
-0.00569928
-0.00571819
-0.0057347
-0.00576072
-0.0057681
-0.0057709
-0.00579636
-0.00582214
-0.00584016
-0.00586338
-0.005881
-0.00588519
-0.00588966
-0.00589823
-0.00591068
-0.00592172
-0.00593417
-0.00594439
-0.00595048
-0.00595386
-0.00595544
-0.00595493
-0.00595666
-0.00596381
-0.0059708
-0.00597361
-0.00597346
-0.00596965
-0.00596817
-0.00596674
-0.00596494
-0.00596362
-0.00595994
-0.00595646
-0.00595138
-0.00594147
-0.00593435
-0.00592284
-0.00591229
-0.00589858
-0.00588204
-0.00586487
-0.0058471
-0.005827
-0.00580713
-0.00578487
-0.00577047
-0.00574844
-0.0057826
-0.00583543
0.0120581
0.00795167
0.000849806
-0.0048759
-0.00719673
-0.00709755
-0.00658208
-0.00627732
-0.00596764
-0.00555486
-0.00516284
-0.00490791
-0.00481386
-0.00487055
-0.00500169
-0.00504081
-0.00494346
-0.00484545
-0.00483703
-0.00490027
-0.00498355
-0.00503149
-0.00504036
-0.0050668
-0.00513738
-0.00520517
-0.0052181
-0.00518868
-0.00516616
-0.00517419
-0.00519365
-0.00519885
-0.00519555
-0.00521018
-0.00524337
-0.00527528
-0.00530474
-0.00534899
-0.00540749
-0.00545399
-0.00547955
-0.00550343
-0.00553555
-0.00555455
-0.00555442
-0.00556347
-0.00558839
-0.005605
-0.0056205
-0.00565705
-0.00569878
-0.00571772
-0.00573424
-0.00576029
-0.00576768
-0.00577048
-0.00579598
-0.00582179
-0.00583982
-0.00586307
-0.00588071
-0.00588489
-0.00588938
-0.00589796
-0.00591042
-0.00592147
-0.00593393
-0.00594417
-0.00595026
-0.00595365
-0.00595524
-0.00595473
-0.00595647
-0.00596362
-0.00597062
-0.00597344
-0.00597329
-0.0059695
-0.00596802
-0.0059666
-0.0059648
-0.00596349
-0.00595981
-0.00595633
-0.00595126
-0.00594135
-0.00593424
-0.00592274
-0.00591219
-0.00589848
-0.00588194
-0.00586478
-0.00584701
-0.00582692
-0.00580704
-0.00578478
-0.00577038
-0.00574834
-0.00578246
-0.00583547
0.0113189
0.00770312
0.00104779
-0.00451788
-0.00694943
-0.00698884
-0.00651664
-0.0062181
-0.0059174
-0.00551803
-0.00513928
-0.00489537
-0.00480752
-0.00486322
-0.00498905
-0.00502582
-0.00493224
-0.00483986
-0.00483368
-0.0048951
-0.00497581
-0.00502368
-0.00503459
-0.00506249
-0.00513288
-0.0052003
-0.00521412
-0.00518619
-0.00516439
-0.00517218
-0.00519141
-0.00519699
-0.00519413
-0.00520866
-0.00524149
-0.00527335
-0.00530308
-0.00534749
-0.005406
-0.00545259
-0.00547837
-0.0055024
-0.00553453
-0.00555357
-0.00555352
-0.00556261
-0.00558754
-0.00560421
-0.00561978
-0.00565639
-0.00569817
-0.00571715
-0.0057337
-0.00575977
-0.00576717
-0.00576998
-0.00579552
-0.00582137
-0.00583943
-0.0058627
-0.00588036
-0.00588456
-0.00588905
-0.00589765
-0.00591012
-0.00592119
-0.00593366
-0.00594392
-0.00595001
-0.00595341
-0.00595501
-0.00595451
-0.00595625
-0.00596342
-0.00597043
-0.00597326
-0.00597311
-0.00596932
-0.00596785
-0.00596644
-0.00596464
-0.00596334
-0.00595967
-0.0059562
-0.00595113
-0.00594123
-0.00593412
-0.00592262
-0.00591207
-0.00589838
-0.00588184
-0.00586468
-0.00584691
-0.00582682
-0.00580695
-0.00578469
-0.00577028
-0.00574822
-0.00578228
-0.0058355
0.0106023
0.00742574
0.00122331
-0.00416163
-0.00668824
-0.00687207
-0.00645033
-0.00615759
-0.00586392
-0.00547763
-0.00511288
-0.00488098
-0.00480015
-0.00485516
-0.00497544
-0.00500968
-0.00492016
-0.00483397
-0.00483038
-0.00488987
-0.00496768
-0.0050153
-0.00502828
-0.00505748
-0.00512717
-0.00519388
-0.00520879
-0.00518293
-0.00516222
-0.00516975
-0.0051887
-0.00519484
-0.00519269
-0.00520716
-0.00523945
-0.00527113
-0.00530111
-0.00534564
-0.00540404
-0.00545072
-0.00547686
-0.0055011
-0.00553326
-0.00555239
-0.00555249
-0.00556161
-0.00558649
-0.00560321
-0.00561889
-0.00565555
-0.00569739
-0.00571646
-0.00573305
-0.00575913
-0.00576654
-0.00576938
-0.00579495
-0.00582084
-0.00583895
-0.00586226
-0.00587994
-0.00588415
-0.00588867
-0.00589728
-0.00590977
-0.00592086
-0.00593336
-0.00594363
-0.00594973
-0.00595314
-0.00595475
-0.00595425
-0.00595601
-0.00596319
-0.00597021
-0.00597304
-0.0059729
-0.00596912
-0.00596765
-0.00596626
-0.00596446
-0.00596317
-0.0059595
-0.00595604
-0.00595098
-0.00594108
-0.00593398
-0.00592249
-0.00591195
-0.00589826
-0.00588172
-0.00586457
-0.0058468
-0.00582672
-0.00580684
-0.00578458
-0.00577017
-0.00574808
-0.00578205
-0.00583553
0.00991198
0.00712117
0.00137373
-0.00380663
-0.00641018
-0.00674459
-0.00638293
-0.0060969
-0.00580807
-0.00543401
-0.00508372
-0.00486472
-0.00479173
-0.00484649
-0.0049612
-0.00499277
-0.0049074
-0.00482768
-0.0048269
-0.0048845
-0.00495936
-0.00500674
-0.00502186
-0.00505215
-0.00512063
-0.00518619
-0.00520223
-0.00517885
-0.00515955
-0.00516686
-0.00518549
-0.00519233
-0.00519117
-0.00520571
-0.00523739
-0.00526882
-0.00529901