/*--------------------------------*- C++ -*----------------------------------*\
| =========                 |                                                 |
| \\      /  F ield         | OpenFOAM: The Open Source CFD Toolbox           |
|  \\    /   O peration     | Version:  3.0.1                                 |
|   \\  /    A nd           | Web:      www.OpenFOAM.org                      |
|    \\/     M anipulation  |                                                 |
\*---------------------------------------------------------------------------*/
FoamFile
{
    version     2.0;
    format      ascii;
    class       surfaceScalarField;
    location    "2.3";
    object      phi;
}
// * * * * * * * * * * * * * * * * * * * * * * * * * * * * * * * * * * * * * //

dimensions      [0 3 -1 0 0 0 0];

internalField   nonuniform List<scalar> 
19000
(
1.16699e-06
2.3185e-07
1.1663e-06
-5.45826e-07
1.20723e-06
3.2407e-07
1.13739e-06
5.78737e-07
1.10979e-06
-1.48185e-07
1.17833e-06
-3.95982e-07
1.18914e-06
-3.55235e-07
1.16208e-06
-2.87384e-07
1.18087e-06
5.58473e-07
1.13107e-06
1.22509e-07
1.14414e-06
5.80152e-07
1.11718e-06
2.80621e-07
1.12315e-06
-1.39014e-07
1.13355e-06
-1.16747e-07
1.1359e-06
-2.77602e-07
1.1401e-06
-1.58734e-07
1.15139e-06
-2.21977e-07
1.14662e-06
-1.01039e-07
1.15008e-06
-1.17628e-07
-2.85185e-08
1.11855e-06
1.22056e-06
2.35555e-07
1.21958e-06
-5.44846e-07
1.26021e-06
2.83432e-07
1.19946e-06
6.39488e-07
1.16788e-06
-1.166e-07
1.23175e-06
-4.59854e-07
1.24439e-06
-3.67879e-07
1.21882e-06
-2.61807e-07
1.23266e-06
5.4463e-07
1.18921e-06
1.6596e-07
1.18908e-06
5.80282e-07
1.1827e-06
2.86999e-07
1.17723e-06
-1.33537e-07
1.19859e-06
-1.38109e-07
1.19046e-06
-2.6947e-07
1.20776e-06
-1.76035e-07
1.2013e-06
-2.15519e-07
1.21756e-06
-1.17302e-07
1.19492e-06
-9.49819e-08
-3.51144e-08
1.20151e-06
1.27662e-06
2.41715e-07
1.27528e-06
-5.43502e-07
1.31122e-06
2.47495e-07
1.26855e-06
6.82152e-07
1.23156e-06
-7.96085e-08
1.28673e-06
-5.15022e-07
1.30118e-06
-3.82329e-07
1.27985e-06
-2.40482e-07
1.28494e-06
5.39544e-07
1.25327e-06
1.97632e-07
1.24105e-06
5.92503e-07
1.25133e-06
2.76712e-07
1.2391e-06
-1.213e-07
1.26092e-06
-1.59928e-07
1.25197e-06
-2.60528e-07
1.26654e-06
-1.90603e-07
1.26145e-06
-2.10427e-07
1.27111e-06
-1.26962e-07
1.25765e-06
-8.1518e-08
-2.72662e-08
1.2498e-06
1.33613e-06
2.49685e-07
1.33459e-06
-5.41964e-07
1.3627e-06
2.19389e-07
1.34051e-06
7.04339e-07
1.30086e-06
-3.9954e-08
1.34415e-06
-5.58314e-07
1.35962e-06
-3.97797e-07
1.34335e-06
-2.24214e-07
1.34081e-06
5.42082e-07
1.31936e-06
2.19085e-07
1.30408e-06
6.07777e-07
1.31957e-06
2.61226e-07
1.30925e-06
-1.10984e-07
1.32307e-06
-1.73742e-07
1.31953e-06
-2.56992e-07
1.3276e-06
-1.98671e-07
1.32606e-06
-2.08881e-07
1.331e-06
-1.31903e-07
1.32207e-06
-7.25921e-08
-1.72669e-08
1.31207e-06
1.39997e-06
2.5807e-07
1.39782e-06
-5.39813e-07
1.41696e-06
2.00242e-07
1.41268e-06
7.08624e-07
1.37534e-06
-2.61285e-09
1.40483e-06
-5.87809e-07
1.42048e-06
-4.13447e-07
1.40806e-06
-2.11793e-07
1.40133e-06
5.48813e-07
1.38634e-06
2.34073e-07
1.37556e-06
6.18561e-07
1.38986e-06
2.4693e-07
1.38384e-06
-1.04967e-07
1.39041e-06
-1.80312e-07
1.38914e-06
-2.55727e-07
1.3946e-06
-2.04124e-07
1.39276e-06
-2.07041e-07
1.39667e-06
-1.35814e-07
1.3892e-06
-6.5121e-08
-7.55356e-09
1.37948e-06
1.46854e-06
2.65209e-07
1.46495e-06
-5.3622e-07
1.47614e-06
1.89052e-07
1.48459e-06
7.00172e-07
1.45403e-06
2.79471e-08
1.46974e-06
-6.03524e-07
1.484e-06
-4.27707e-07
1.47416e-06
-2.01949e-07
1.46676e-06
5.56208e-07
1.45583e-06
2.4501e-07
1.45156e-06
6.22828e-07
1.46393e-06
2.34563e-07
1.4604e-06
-1.01445e-07
1.46284e-06
-1.82747e-07
1.46051e-06
-2.53393e-07
1.46468e-06
-2.08298e-07
1.46199e-06
-2.04354e-07
1.46457e-06
-1.38395e-07
1.45888e-06
-5.94241e-08
2.20243e-09
1.44912e-06
1.54158e-06
2.69843e-07
1.53592e-06
-5.30554e-07
1.54139e-06
1.83574e-07
1.55745e-06
6.84118e-07
1.53552e-06
4.98711e-08
1.53952e-06
-6.07522e-07
1.55024e-06
-4.38422e-07
1.54236e-06
-1.94076e-07
1.53693e-06
5.61642e-07
1.52939e-06
2.52545e-07
1.53052e-06
6.21707e-07
1.54168e-06
2.23402e-07
1.53879e-06
-9.85609e-08
1.53879e-06
-1.82741e-07
1.53459e-06
-2.49197e-07
1.53685e-06
-2.1056e-07
1.53373e-06
-2.01228e-07
1.53438e-06
-1.39045e-07
1.53026e-06
-5.53052e-08
1.17439e-08
1.52072e-06
1.61839e-06
2.71583e-07
1.61069e-06
-5.22851e-07
1.61274e-06
1.81517e-07
1.63259e-06
6.64276e-07
1.61858e-06
6.38802e-08
1.61414e-06
-6.03089e-07
1.61962e-06
-4.43901e-07
1.61339e-06
-1.87843e-07
1.61136e-06
5.63674e-07
1.6073e-06
2.56607e-07
1.61238e-06
6.16622e-07
1.62247e-06
2.13309e-07
1.6194e-06
-9.5487e-08
1.6175e-06
-1.80845e-07
1.61186e-06
-2.43554e-07
1.6117e-06
-2.10404e-07
1.60815e-06
-1.97671e-07
1.60666e-06
-1.37563e-07
1.6035e-06
-5.21413e-08
2.07911e-08
1.59445e-06
1.69829e-06
2.70871e-07
1.68922e-06
-5.13781e-07
1.68951e-06
1.81222e-07
1.71071e-06
6.43074e-07
1.70266e-06
7.19346e-08
1.69312e-06
-5.93553e-07
1.69291e-06
-4.43685e-07
1.68788e-06
-1.82816e-07
1.68953e-06
5.62023e-07
1.68884e-06
2.57303e-07
1.69706e-06
6.08395e-07
1.7058e-06
2.04572e-07
1.7024e-06
-9.20865e-08
1.69884e-06
-1.77288e-07
1.6924e-06
-2.3711e-07
1.68982e-06
-2.07826e-07
1.68576e-06
-1.93607e-07
1.6821e-06
-1.33903e-07
1.67924e-06
-4.9283e-08
2.92274e-08
1.6708e-06
1.78104e-06
2.6855e-07
1.77148e-06
-5.04218e-07
1.77098e-06
1.81718e-07
1.79214e-06
6.21923e-07
1.78804e-06
7.6033e-08
1.77595e-06
-5.81462e-07
1.77074e-06
-4.38476e-07
1.7664e-06
-1.7848e-07
1.77123e-06
5.57198e-07
1.77334e-06
2.55186e-07
1.78427e-06
5.97465e-07
1.79146e-06
1.97385e-07
1.78792e-06
-8.85469e-08
1.78289e-06
-1.72257e-07
1.77624e-06
-2.30463e-07
1.77152e-06
-2.03101e-07
1.76699e-06
-1.89086e-07
1.76131e-06
-1.2822e-07
1.75816e-06
-4.6127e-08
3.6969e-08
1.75041e-06
1.8669e-06
2.65399e-07
1.85749e-06
-4.94804e-07
1.85672e-06
1.82482e-07
1.87714e-06
6.01504e-07
1.87546e-06
7.77152e-08
1.86235e-06
-5.68355e-07
1.85343e-06
-4.29557e-07
1.84936e-06
-1.74408e-07
1.8566e-06
5.4996e-07
1.86068e-06
2.51099e-07
1.87394e-06
5.84211e-07
1.87959e-06
1.91731e-07
1.8762e-06
-8.51568e-08
1.86986e-06
-1.65912e-07
1.86347e-06
-2.24073e-07
1.85698e-06
-1.96614e-07
1.8521e-06
-1.84207e-07
1.84483e-06
-1.2095e-07
1.84085e-06
-4.21492e-08
4.38797e-08
1.83394e-06
1.95633e-06
2.61912e-07
1.9473e-06
-4.85779e-07
1.94656e-06
1.83223e-07
1.9661e-06
5.81963e-07
1.96577e-06
7.80438e-08
1.95236e-06
-5.54938e-07
1.94104e-06
-4.18243e-07
1.93697e-06
-1.70332e-07
1.94598e-06
5.40948e-07
1.95119e-06
2.45892e-07
1.96637e-06
5.69031e-07
1.97062e-06
1.87476e-07
1.96764e-06
-8.2178e-08
1.96009e-06
-1.58363e-07
1.95423e-06
-2.18205e-07
1.9464e-06
-1.8879e-07
1.94119e-06
-1.78997e-07
1.93296e-06
-1.12719e-07
1.92779e-06
-3.69807e-08
4.97831e-08
1.92189e-06
2.04979e-06
2.58308e-07
2.04107e-06
-4.77058e-07
2.04054e-06
1.83753e-07
2.0594e-06
5.631e-07
2.05973e-06
7.77166e-08
2.04617e-06
-5.41377e-07
2.03353e-06
-4.05603e-07
2.02929e-06
-1.66095e-07
2.03967e-06
5.30568e-07
2.04531e-06
2.40251e-07
2.06206e-06
5.5228e-07
2.06507e-06
1.84472e-07
2.06269e-06
-7.97979e-08
2.05402e-06
-1.49692e-07
2.04874e-06
-2.12926e-07
2.04001e-06
-1.80061e-07
2.03435e-06
-1.73336e-07
2.02586e-06
-1.04228e-07
2.01933e-06
-3.04569e-08
5.4566e-08
2.01455e-06
2.14767e-06
2.54637e-07
2.13902e-06
-4.68407e-07
2.13883e-06
1.83948e-07
2.15734e-06
5.44585e-07
2.15791e-06
7.71517e-08
2.1441e-06
-5.27568e-07
2.13088e-06
-3.92389e-07
2.12637e-06
-1.61583e-07
2.1379e-06
5.19037e-07
2.1435e-06
2.34652e-07
2.16156e-06
5.34218e-07
2.16344e-06
1.82592e-07
2.16177e-06
-7.81286e-08
2.15207e-06
-1.39987e-07
2.14727e-06
-2.08132e-07
2.13807e-06
-1.70858e-07
2.13169e-06
-1.66957e-07
2.12359e-06
-9.61267e-08
2.11581e-06
-2.26802e-08
5.83271e-08
2.11205e-06
2.25025e-06
2.50872e-07
2.24144e-06
-4.59589e-07
2.24165e-06
1.83731e-07
2.26011e-06
5.2613e-07
2.26072e-06
7.65417e-08
2.24647e-06
-5.13317e-07
2.23316e-06
-3.79087e-07
2.22827e-06
-1.56693e-07
2.24086e-06
5.06454e-07
2.24611e-06
2.29402e-07
2.26532e-06
5.15005e-07
2.26618e-06
1.81729e-07
2.26526e-06
-7.72081e-08
2.25467e-06
-1.29393e-07
2.25011e-06
-2.03575e-07
2.24087e-06
-1.6162e-07
2.23342e-06
-1.59507e-07
2.22621e-06
-8.89077e-08
2.21754e-06
-1.40123e-08
6.14214e-08
2.21444e-06
2.35778e-06
2.46968e-07
2.34862e-06
-4.50428e-07
2.34929e-06
1.83062e-07
2.36783e-06
5.07588e-07
2.36847e-06
7.59047e-08
2.3536e-06
-4.98448e-07
2.34051e-06
-3.66e-07
2.33514e-06
-1.51319e-07
2.34874e-06
4.92853e-07
2.35345e-06
2.24692e-07
2.37371e-06
4.94738e-07
2.37366e-06
1.8178e-07
2.37346e-06
-7.70002e-08
2.3622e-06
-1.18132e-07
2.35753e-06
-1.9891e-07
2.34869e-06
-1.52774e-07
2.33985e-06
-1.50671e-07
2.33376e-06
-8.28208e-08
2.3247e-06
-4.94983e-09
6.43293e-08
2.32179e-06
2.47049e-06
2.42874e-07
2.46088e-06
-4.40817e-07
2.46202e-06
1.81923e-07
2.48065e-06
4.88953e-07
2.48141e-06
7.51451e-08
2.46579e-06
-4.8283e-07
2.45312e-06
-3.53321e-07
2.44715e-06
-1.45356e-07
2.46176e-06
4.78244e-07
2.46583e-06
2.20628e-07
2.48706e-06
4.73504e-07
2.48622e-06
1.8262e-07
2.4866e-06
-7.73853e-08
2.47499e-06
-1.06519e-07
2.4698e-06
-1.93723e-07
2.46175e-06
-1.44717e-07
2.45136e-06
-1.40284e-07
2.44633e-06
-7.779e-08
2.43744e-06
3.94341e-09
6.74919e-08
2.43427e-06
2.58862e-06
2.38547e-07
2.5785e-06
-4.30695e-07
2.58013e-06
1.80288e-07
2.59876e-06
4.70331e-07
2.59979e-06
7.411e-08
2.58334e-06
-4.66377e-07
2.5712e-06
-3.41187e-07
2.56456e-06
-1.38714e-07
2.58016e-06
4.62642e-07
2.58354e-06
2.1725e-07
2.60563e-06
4.51416e-07
2.60416e-06
1.84086e-07
2.60493e-06
-7.81558e-08
2.59336e-06
-9.49414e-08
2.58721e-06
-1.87581e-07
2.58024e-06
-1.3774e-07
2.5684e-06
-1.28449e-07
2.56398e-06
-7.33668e-08
2.55589e-06
1.20363e-08
7.12172e-08
2.55216e-06
2.71243e-06
2.33949e-07
2.70175e-06
-4.20023e-07
2.70393e-06
1.7811e-07
2.72237e-06
4.51888e-07
2.72385e-06
7.26312e-08
2.7065e-06
-4.49025e-07
2.69501e-06
-3.297e-07
2.68763e-06
-1.31331e-07
2.70418e-06
4.4609e-07
2.7069e-06
2.14529e-07
2.72968e-06
4.2864e-07
2.72781e-06
1.85959e-07
2.72868e-06
-7.90257e-08
2.71757e-06
-8.3829e-08
2.71006e-06
-1.80073e-07
2.70431e-06
-1.31996e-07
2.69137e-06
-1.15508e-07
2.6869e-06
-6.88957e-08
2.68019e-06
1.87453e-08
7.56033e-08
2.67581e-06
2.84217e-06
2.2905e-07
2.83091e-06
-4.08763e-07
2.8337e-06
1.75317e-07
2.85178e-06
4.3381e-07
2.85386e-06
7.05465e-08
2.83556e-06
-4.30721e-07
2.8248e-06
-3.18937e-07
2.81665e-06
-1.23188e-07
2.83407e-06
4.2867e-07
2.83624e-06
2.12366e-07
2.85947e-06
4.05403e-07
2.85746e-06
1.87974e-07
2.85809e-06
-7.96618e-08
2.84785e-06
-7.35864e-08
2.83869e-06
-1.7091e-07
2.83412e-06
-1.27428e-07
2.82059e-06
-1.01973e-07
2.81544e-06
-6.37489e-08
2.81048e-06
2.37025e-08
8.05068e-08
2.80558e-06
2.97812e-06
2.23822e-07
2.96623e-06
-3.96869e-07
2.96973e-06
1.71813e-07
2.98726e-06
4.1628e-07
2.9901e-06
6.77111e-08
2.9708e-06
-4.11421e-07
2.9608e-06
-3.08941e-07
2.95194e-06
-1.14324e-07
2.97009e-06
4.10517e-07
2.97187e-06
2.10588e-07
2.99528e-06
3.81998e-07
2.99341e-06
1.89838e-07
2.99348e-06
-7.97291e-08
2.98443e-06
-6.45337e-08
2.97351e-06
-1.59996e-07
2.96983e-06
-1.23749e-07
2.9563e-06
-8.84457e-08
2.95004e-06
-5.74857e-08
2.94687e-06
2.687e-08
8.55532e-08
2.94183e-06
3.12059e-06
2.18239e-07
3.10801e-06
-3.84288e-07
3.11233e-06
1.67494e-07
3.12914e-06
3.99462e-07
3.13285e-06
6.40044e-08
3.11253e-06
-3.91102e-07
3.1033e-06
-2.99709e-07
3.09382e-06
-1.04841e-07
3.11251e-06
3.91828e-07
3.11414e-06
2.08959e-07
3.13737e-06
3.5876e-07
3.13595e-06
1.91258e-07
3.13516e-06
-7.89348e-08
3.12749e-06
-5.68649e-08
3.11492e-06
-1.4743e-07
3.11168e-06
-1.20506e-07
3.09873e-06
-7.54986e-08
3.09117e-06
-4.99228e-08
3.08952e-06
2.85221e-08
9.02119e-08
3.08486e-06
3.26987e-06
2.12278e-07
3.25654e-06
-3.70959e-07
3.26178e-06
1.62258e-07
3.27774e-06
3.83495e-07
3.28241e-06
5.93421e-08
3.26108e-06
-3.69778e-07
3.25256e-06
-2.91181e-07
3.24263e-06
-9.49152e-08
3.26159e-06
3.72865e-07
3.26337e-06
2.07185e-07
3.28609e-06
3.36038e-07
3.28536e-06
1.91989e-07
3.28349e-06
-7.70685e-08
3.27725e-06
-5.06265e-08
3.2633e-06
-1.33474e-07
3.25998e-06
-1.17186e-07
3.24808e-06
-6.36012e-08
3.23925e-06
-4.10952e-08
3.23864e-06
2.91367e-08
9.39141e-08
3.23494e-06
3.42629e-06
2.05921e-07
3.41215e-06
-3.56823e-07
3.4184e-06
1.5601e-07
3.43341e-06
3.68487e-07
3.43906e-06
5.36892e-08
3.41681e-06
-3.47526e-07
3.40887e-06
-2.83237e-07
3.39873e-06
-8.47819e-08
3.41766e-06
3.53938e-07
3.41988e-06
2.04961e-07
3.44179e-06
3.14135e-07
3.4419e-06
1.91877e-07
3.43887e-06
-7.40364e-08
3.43397e-06
-4.5731e-08
3.41897e-06
-1.18478e-07
3.41511e-06
-1.1332e-07
3.40456e-06
-5.30535e-08
3.39468e-06
-3.12129e-08
3.39453e-06
2.92841e-08
9.6168e-08
3.39228e-06
3.59018e-06
1.99153e-07
3.57519e-06
-3.41829e-07
3.58252e-06
1.48672e-07
3.5965e-06
3.54505e-07
3.60312e-06
4.70748e-08
3.58009e-06
-3.24499e-07
3.57254e-06
-2.75683e-07
3.5625e-06
-7.47422e-08
3.58104e-06
3.35401e-07
3.58401e-06
2.01988e-07
3.60486e-06
2.93283e-07
3.60585e-06
1.90887e-07
3.60168e-06
-6.98638e-08
3.59794e-06
-4.19901e-08
3.58228e-06
-1.02821e-07
3.5775e-06
-1.08544e-07
3.56847e-06
-4.40163e-08
3.55783e-06
-2.0577e-08
3.55757e-06
2.95479e-08
9.66477e-08
3.55709e-06
3.76189e-06
1.91964e-07
3.746e-06
-3.25936e-07
3.75448e-06
1.40191e-07
3.76741e-06
3.41578e-07
3.7749e-06
3.95846e-08
3.75133e-06
-3.00925e-07
3.7439e-06
-2.68257e-07
3.73431e-06
-6.51559e-08
3.75209e-06
3.17622e-07
3.75605e-06
1.98031e-07
3.77575e-06
2.73588e-07
3.7775e-06
1.89128e-07
3.77232e-06
-6.46768e-08
3.76948e-06
-3.91526e-08
3.75356e-06
-8.69032e-08
3.74758e-06
-1.02558e-07
3.74013e-06
-3.65657e-08
3.7291e-06
-9.54581e-09
3.72817e-06
3.04742e-08
9.52703e-08
3.72955e-06
3.9418e-06
1.84351e-07
3.92499e-06
-3.09122e-07
3.93463e-06
1.30544e-07
3.94653e-06
3.29686e-07
3.95474e-06
3.13728e-08
3.93093e-06
-2.77118e-07
3.92331e-06
-2.60635e-07
3.91456e-06
-5.64077e-08
3.93126e-06
3.00922e-07
3.93629e-06
1.92997e-07
3.95488e-06
2.54999e-07
3.95722e-06
1.86795e-07
3.95115e-06
-5.86154e-08
3.94901e-06
-3.70063e-08
3.93315e-06
-7.10476e-08
3.92579e-06
-9.51973e-08
3.91985e-06
-3.06218e-08
3.90891e-06
1.39267e-09
3.90682e-06
3.25615e-08
9.22527e-08
3.90984e-06
4.13029e-06
1.76317e-07
4.11255e-06
-2.91387e-07
4.12334e-06
1.19751e-07
4.13428e-06
3.1875e-07
4.14298e-06
2.26674e-08
4.11933e-06
-2.53468e-07
4.11114e-06
-2.5244e-07
4.10363e-06
-4.88954e-08
4.119e-06
2.8555e-07
4.12503e-06
1.86962e-07
4.14271e-06
2.37326e-07
4.14538e-06
1.84118e-07
4.13854e-06
-5.17719e-08
4.13694e-06
-3.5408e-08
4.12142e-06
-5.55206e-08
4.11261e-06
-8.63893e-08
4.10793e-06
-2.59397e-08
4.09767e-06
1.16449e-08
4.09412e-06
3.61187e-08
8.81885e-08
4.09818e-06
4.32775e-06
1.6787e-07
4.30912e-06
-2.72761e-07
4.32099e-06
1.07884e-07
4.33112e-06
3.08625e-07
4.34e-06
1.37816e-08
4.31697e-06
-2.30434e-07
4.30781e-06
-2.43279e-07
4.30189e-06
-4.29839e-08
4.31583e-06
2.71614e-07
4.32259e-06
1.80197e-07
4.33962e-06
2.20304e-07
4.34246e-06
1.8127e-07
4.33485e-06
-4.41553e-08
4.3337e-06
-3.42635e-08
4.31875e-06
-4.0564e-08
4.30848e-06
-7.61266e-08
4.30474e-06
-2.21907e-08
4.2957e-06
2.06758e-08
4.29073e-06
4.10958e-08
8.3993e-08
4.29492e-06
4.53461e-06
1.5903e-07
4.51517e-06
-2.53318e-07
4.52797e-06
9.50827e-08
4.53751e-06
2.99089e-07
4.54619e-06
5.095e-09
4.52427e-06
-2.08507e-07
4.51376e-06
-2.32775e-07
4.50974e-06
-3.89557e-08
4.5223e-06
2.59049e-07
4.52939e-06
1.73108e-07
4.54598e-06
2.03716e-07
4.54894e-06
1.78307e-07
4.54048e-06
-3.56991e-08
4.53968e-06
-3.34629e-08
4.52555e-06
-2.64345e-08
4.51393e-06
-6.45017e-08
4.51069e-06
-1.89497e-08
4.50327e-06
2.80949e-08
4.4973e-06
4.70614e-08
8.063e-08
4.50067e-06
4.75132e-06
1.49829e-07
4.73118e-06
-2.33178e-07
4.74469e-06
8.15668e-08
4.75394e-06
2.89839e-07
4.76198e-06
-2.94386e-09
4.74168e-06
-1.88202e-07
4.72951e-06
-2.20609e-07
4.72743e-06
-3.68788e-08
4.73896e-06
2.4752e-07
4.74588e-06
1.66193e-07
4.76217e-06
1.87423e-07
4.76529e-06
1.75186e-07
4.75589e-06
-2.62922e-08
4.75527e-06
-3.28453e-08
4.74226e-06
-1.34303e-08
4.72944e-06
-5.16738e-08
4.7263e-06
-1.58141e-08
4.72062e-06
3.37748e-08
4.71435e-06
5.3329e-08
7.87617e-08
4.71622e-06
4.97832e-06
1.40311e-07
4.95766e-06
-2.12517e-07
4.97158e-06
6.76429e-08
4.98093e-06
2.8049e-07
4.98784e-06
-9.85144e-09
4.96965e-06
-1.70016e-07
4.95562e-06
-2.06578e-07
4.95522e-06
-3.64796e-08
4.96631e-06
2.36427e-07
4.97262e-06
1.59883e-07
4.98859e-06
1.71452e-07
4.99198e-06
1.718e-07
4.98155e-06
-1.58638e-08
4.98083e-06
-3.21232e-08
4.96932e-06
-1.91654e-09
4.95552e-06
-3.78806e-08
4.95215e-06
-1.244e-08
4.9481e-06
3.78237e-08
4.94222e-06
5.92124e-08
7.85108e-08
4.94247e-06
5.21609e-06
1.3054e-07
5.19514e-06
-1.91567e-07
5.20908e-06
5.36983e-08
5.21898e-06
2.70593e-07
5.2243e-06
-1.51685e-08
5.20861e-06
-1.54329e-07
5.19277e-06
-1.90742e-07
5.19346e-06
-3.71705e-08
5.20476e-06
2.25128e-07
5.21021e-06
1.54431e-07
5.22566e-06
1.56003e-07
5.22944e-06
1.68026e-07
5.21797e-06
-4.39982e-09
5.21681e-06
-3.09645e-08
5.20709e-06
7.80265e-09
5.19274e-06
-2.3522e-08
5.18883e-06
-8.52951e-09
5.18618e-06
4.04731e-08
5.18111e-06
6.4277e-08
7.9491e-08
5.18013e-06
5.46513e-06
1.20594e-07
5.44418e-06
-1.70608e-07
5.45768e-06
4.01949e-08
5.46864e-06
2.59634e-07
5.47197e-06
-1.85028e-08
5.45888e-06
-1.41234e-07
5.44172e-06
-1.73588e-07
5.44277e-06
-3.82177e-08
5.45467e-06
2.13232e-07
5.45923e-06
1.49871e-07
5.47381e-06
1.41422e-07
5.47802e-06
1.63817e-07
5.46566e-06
7.95774e-09
5.46373e-06
-2.90357e-08
5.45608e-06
1.5454e-08
5.44161e-06
-9.05535e-09
5.43692e-06
-3.83218e-09
5.43541e-06
4.19783e-08
5.43134e-06
6.83441e-08
8.11292e-08
5.42971e-06
5.72598e-06
1.10571e-07
5.70534e-06
-1.49972e-07
5.71788e-06
2.76554e-08
5.73047e-06
2.47051e-07
5.73161e-06
-1.9649e-08
5.72076e-06
-1.30383e-07
5.7031e-06
-1.55926e-07
5.7038e-06
-3.89184e-08
5.71637e-06
2.00669e-07
5.72013e-06
1.46109e-07
5.73342e-06
1.28124e-07
5.73807e-06
1.59168e-07
5.72516e-06
2.08704e-08
5.72223e-06
-2.61021e-08
5.71679e-06
2.08949e-08
5.70271e-06
5.02164e-09
5.697e-06
1.88109e-09
5.6964e-06
4.25697e-08
5.69339e-06
7.13609e-08
8.29722e-08
5.69154e-06
5.99918e-06
1.00579e-07
5.97923e-06
-1.30017e-07
5.99027e-06
1.66132e-08
6.00494e-06
2.32385e-07
6.00403e-06
-1.87429e-08
5.99471e-06
-1.21065e-07
5.97729e-06
-1.38503e-07
5.97715e-06
-3.87764e-08
5.99005e-06
1.87767e-07
5.9931e-06
1.43058e-07
6.00473e-06
1.16493e-07
6.00998e-06
1.53924e-07
5.99712e-06
3.37323e-08
5.99308e-06
-2.20682e-08
5.98969e-06
2.42825e-08
5.97659e-06
1.81215e-08
5.9697e-06
8.77757e-09
5.9697e-06
4.25655e-08
5.96783e-06
7.32326e-08
8.47803e-08
5.96602e-06
6.28533e-06
9.07325e-08
6.26643e-06
-1.11109e-07
6.27554e-06
7.49798e-09
6.29231e-06
2.15618e-07
6.28996e-06
-1.63974e-08
6.28139e-06
-1.1249e-07
6.26465e-06
-1.21762e-07
6.2632e-06
-3.73323e-08
6.27576e-06
1.75208e-07
6.27806e-06
1.40765e-07
6.28805e-06
1.06503e-07
6.2944e-06
1.47568e-07
6.28228e-06
4.58578e-08
6.27707e-06
-1.68621e-08
6.27538e-06
2.59733e-08
6.26376e-06
2.97457e-08
6.25573e-06
1.68049e-08
6.25586e-06
4.24382e-08
6.25527e-06
7.38224e-08
8.63862e-08
6.25366e-06
6.58506e-06
8.11447e-08
6.56754e-06
-9.35935e-08
6.57449e-06
5.48394e-10
6.59295e-06
1.97157e-07
6.58998e-06
-1.3429e-08
6.58165e-06
-1.04155e-07
6.56557e-06
-1.05688e-07
6.56238e-06
-3.41411e-08
6.57433e-06
1.63263e-07
6.57625e-06
1.38846e-07
6.58468e-06
9.80669e-08
6.59224e-06
1.40008e-07
6.58135e-06
5.67528e-08
6.57491e-06
-1.0428e-08
6.57441e-06
2.64753e-08
6.5647e-06
3.94569e-08
6.55582e-06
2.56859e-08
6.55551e-06
4.27491e-08
6.55622e-06
7.31135e-08
8.75281e-08
6.55508e-06
6.89901e-06
7.19214e-08
6.8832e-06
-7.77748e-08
6.888e-06
-4.25368e-09
6.9075e-06
1.77654e-07
6.90456e-06
-1.04851e-08
6.89638e-06
-9.59826e-08
6.88086e-06
-9.01604e-08
6.87595e-06
-2.92367e-08
6.88738e-06
1.51833e-07
6.88932e-06
1.36909e-07
6.89605e-06
9.13326e-08
6.90438e-06
1.31682e-07
6.89492e-06
6.62117e-08
6.88736e-06
-2.8652e-09
6.88748e-06
2.63474e-08
6.87991e-06
4.70285e-08
6.87067e-06
3.49298e-08
6.86946e-06
4.39545e-08
6.8712e-06
7.13799e-08
8.78418e-08
6.87088e-06
7.2279e-06
6.31588e-08
7.214e-06
-6.38782e-08
7.21686e-06
-7.11599e-09
7.23673e-06
1.57791e-07
7.23419e-06
-7.94558e-09
7.22627e-06
-8.80632e-08
7.21147e-06
-7.53668e-08
7.20528e-06
-2.30399e-08
7.2158e-06
1.41313e-07
7.21778e-06
1.34929e-07
7.22287e-06
8.62433e-08
7.23152e-06
1.23025e-07
7.22362e-06
7.41164e-08
7.21513e-06
5.62297e-09
7.21533e-06
2.61516e-08
7.20994e-06
5.24112e-08
7.20092e-06
4.39567e-08
7.19859e-06
4.62779e-08
7.20083e-06
6.91437e-08
8.70429e-08
7.20163e-06
7.57244e-06
5.49417e-08
7.56056e-06
-5.19934e-08
7.56183e-06
-8.39087e-09
7.58141e-06
1.3821e-07
7.57944e-06
-5.97259e-09
7.57198e-06
-8.06005e-08
7.55839e-06
-6.17775e-08
7.55109e-06
-1.57391e-08
7.56017e-06
1.32229e-07
7.56208e-06
1.33018e-07
7.56576e-06
8.25689e-08
7.5744e-06
1.14382e-07
7.56812e-06
8.03992e-08
7.55898e-06
1.47652e-08
7.55876e-06
2.63667e-08
7.55542e-06
5.575e-08
7.54716e-06
5.22205e-08
7.54378e-06
4.96544e-08
7.54592e-06
6.70027e-08
8.51075e-08
7.54786e-06
7.93341e-06
4.73404e-08
7.9235e-06
-4.20763e-08
7.92363e-06
-8.52757e-09
7.94235e-06
1.19492e-07
7.94118e-06
-4.79956e-09
7.93404e-06
-7.34659e-08
7.92241e-06
-5.01433e-08
7.91416e-06
-7.49138e-09
7.92104e-06
1.2535e-07
7.92286e-06
1.31197e-07
7.92542e-06
8.0014e-08
7.93379e-06
1.06004e-07
7.92913e-06
8.50645e-08
7.91963e-06
2.42632e-08
7.91867e-06
2.73294e-08
7.91706e-06
5.73613e-08
7.91e-06
5.92779e-08
7.90585e-06
5.38073e-08
7.90742e-06
6.54279e-08
8.23043e-08
7.91022e-06
8.31161e-06
4.04142e-08
8.30354e-06
-3.4006e-08
8.30285e-06
-7.84437e-09
8.32026e-06
1.02081e-07
8.32019e-06
-4.72482e-09
8.31303e-06
-6.63014e-08
8.30351e-06
-4.06324e-08
8.29428e-06
1.74832e-09
8.29895e-06
1.20675e-07
8.30091e-06
1.29236e-07
8.30261e-06
7.83186e-08
8.31048e-06
9.81303e-08
8.30742e-06
8.8122e-08
8.29787e-06
3.38123e-08
8.29595e-06
2.925e-08
8.29564e-06
5.76707e-08
8.2901e-06
6.48238e-08
8.28556e-06
5.83451e-08
8.28632e-06
6.46634e-08
7.90829e-08
8.28955e-06
8.70785e-06
3.42254e-08
8.70164e-06
-2.77997e-08
8.69994e-06
-6.13672e-09
8.7159e-06
8.61139e-08
8.71643e-06
-5.24704e-09
8.70943e-06
-5.93007e-08
8.70001e-06
-3.12151e-08
8.68988e-06
1.18742e-08
8.69466e-06
1.15893e-07
8.69724e-06
1.26662e-07
8.69815e-06
7.74076e-08
8.70528e-06
9.09967e-08
8.70371e-06
8.96897e-08
8.69456e-06
4.29686e-08
8.69154e-06
3.22706e-08
8.69205e-06
5.71586e-08
8.68818e-06
6.86897e-08
8.68368e-06
6.28492e-08
8.68361e-06
6.47305e-08
7.59071e-08
8.68679e-06
9.12302e-06
2.8825e-08
9.11874e-06
-2.35206e-08
9.11573e-06
-3.12626e-09
9.12971e-06
7.21351e-08
9.12693e-06
-2.4659e-09
9.11631e-06
-4.86832e-08
9.10709e-06
-2.19915e-08
9.1029e-06
1.6063e-08
9.10954e-06
1.09252e-07
9.11276e-06
1.23439e-07
9.11291e-06
7.72639e-08
9.11908e-06
8.48278e-08
9.11886e-06
8.99048e-08
9.11046e-06
5.13656e-08
9.10642e-06
3.63125e-08
9.10721e-06
5.6372e-08
9.10501e-06
7.08919e-08
9.10094e-06
6.69145e-08
9.10018e-06
6.54908e-08
7.3126e-08
9.10296e-06
9.55808e-06
2.42042e-08
9.55532e-06
-2.0762e-08
9.55155e-06
6.49775e-10
9.56246e-06
6.12169e-08
9.55908e-06
9.16994e-10
9.54831e-06
-3.79141e-08
9.54018e-06
-1.38596e-08
9.53748e-06
1.87592e-08
9.54457e-06
1.02164e-07
9.54819e-06
1.19825e-07
9.54768e-06
7.77686e-08
9.55282e-06
7.96942e-08
9.55371e-06
8.90104e-08
9.54641e-06
5.86649e-08
9.54162e-06
4.11059e-08
9.54221e-06
5.57836e-08
9.54144e-06
7.16529e-08
9.53818e-06
7.01786e-08
9.53696e-06
6.67113e-08
7.0934e-08
9.53915e-06
1.0014e-05
2.03464e-08
1.00124e-05
-1.91373e-08
1.00084e-05
4.66724e-09
1.00168e-05
5.27179e-08
1.00149e-05
2.8995e-09
1.00045e-05
-2.75819e-08
9.99607e-06
-5.39823e-09
9.99347e-06
2.13653e-08
1.00005e-05
9.51209e-08
1.00044e-05
1.15929e-07
1.00035e-05
7.87084e-08
1.00075e-05
7.56416e-08
1.00092e-05
8.72858e-08
1.00033e-05
6.46571e-08
9.99806e-06
4.62966e-08
9.99816e-06
5.56858e-08
9.99845e-06
7.13571e-08
9.99622e-06
7.24157e-08
9.99484e-06
6.80869e-08
6.93848e-08
9.99639e-06
1.04918e-05
1.72167e-08
1.04911e-05
-1.84383e-08
1.04872e-05
8.56103e-09
1.04938e-05
4.60902e-08
1.04926e-05
4.08525e-09
1.04831e-05
-1.80956e-08
1.04744e-05
3.35378e-09
1.04714e-05
2.42992e-08
1.04782e-05
8.8326e-08
1.04825e-05
1.11674e-07
1.04813e-05
7.99294e-08
1.04842e-05
7.27075e-08
1.04865e-05
8.50253e-08
1.04819e-05
6.92473e-08
1.04767e-05
5.15104e-08
1.04762e-05
5.61843e-08
1.04771e-05
7.0421e-08
1.04759e-05
7.35845e-08
1.04747e-05
6.92986e-08
6.83875e-08
1.04757e-05
1.09925e-05
1.47424e-08
1.09924e-05
-1.83572e-08
1.09891e-05
1.18662e-08
1.09938e-05
4.14152e-08
1.0993e-05
4.83927e-09
1.09848e-05
-9.85036e-09
1.0976e-05
1.21375e-08
1.09724e-05
2.78766e-08
1.09787e-05
8.20049e-08
1.09834e-05
1.06985e-07
1.09822e-05
8.11985e-08
1.0984e-05
7.08919e-08
1.09865e-05
8.24892e-08
1.09833e-05
7.24825e-08
1.09784e-05
5.63756e-08
1.09773e-05
5.72541e-08
1.09786e-05
6.91986e-08
1.09783e-05
7.38042e-08
1.09775e-05
7.01179e-08
6.77397e-08
1.09782e-05
1.15173e-05
1.28245e-08
1.15175e-05
-1.86104e-08
1.1515e-05
1.43995e-08
1.15178e-05
3.86074e-08
1.15171e-05
5.56167e-09
1.15103e-05
-3.10651e-09
1.15019e-05
2.05895e-08
1.14976e-05
3.21877e-08
1.15031e-05
7.64619e-08
1.15082e-05
1.01861e-07
1.15072e-05
8.22546e-08
1.1508e-05
7.00362e-08
1.15105e-05
7.99948e-08
1.15085e-05
7.45341e-08
1.15043e-05
6.06054e-08
1.15028e-05
5.87391e-08
1.1504e-05
6.7958e-08
1.15046e-05
7.32548e-08
1.15042e-05
7.04442e-08
6.71963e-08
1.15048e-05
1.20673e-05
1.13483e-08
1.20675e-05
-1.88107e-08
1.20659e-05
1.60073e-08
1.20671e-05
3.74437e-08
1.20659e-05
6.72534e-09
1.20607e-05
2.06508e-09
1.20531e-05
2.81996e-08
1.20482e-05
3.71046e-08
1.20526e-05
7.20402e-08
1.2058e-05
9.64592e-08
1.20575e-05
8.28151e-08
1.20575e-05
6.99594e-08
1.20598e-05
7.77526e-08
1.20587e-05
7.56011e-08
1.20552e-05
6.40819e-08
1.20536e-05
6.03807e-08
1.20547e-05
6.68699e-08
1.20558e-05
7.2134e-08
1.2056e-05
7.02656e-08
6.65752e-08
1.20566e-05
1.26437e-05
1.01951e-08
1.26435e-05
-1.85424e-08
1.26428e-05
1.67262e-08
1.26427e-05
3.75227e-08
1.26407e-05
8.72563e-09
1.2637e-05
5.76074e-09
1.26308e-05
3.44256e-08
1.26255e-05
4.23865e-08
1.26285e-05
6.89829e-08
1.26339e-05
9.10586e-08
1.2634e-05
8.27115e-08
1.26336e-05
7.03845e-08
1.26355e-05
7.58743e-08
1.26352e-05
7.58877e-08
1.26325e-05
6.67756e-08
1.26309e-05
6.19828e-08
1.26318e-05
6.59805e-08
1.26333e-05
7.06519e-08
1.26339e-05
6.96071e-08
6.57803e-08
1.26347e-05
1.32479e-05
9.24939e-09
1.32468e-05
-1.74451e-08
1.32468e-05
1.67226e-08
1.3246e-05
3.82808e-08
1.3243e-05
1.17489e-08
1.32404e-05
8.36353e-09
1.32359e-05
3.89279e-08
1.32306e-05
4.76427e-08
1.32323e-05
6.73315e-08
1.32373e-05
8.60329e-08
1.32381e-05
8.19351e-08
1.32375e-05
7.09416e-08
1.3239e-05
7.44386e-08
1.32393e-05
7.56032e-08
1.32373e-05
6.86934e-08
1.32359e-05
6.34215e-08
1.32366e-05
6.52536e-08
1.32383e-05
6.89699e-08
1.32394e-05
6.85316e-08
6.47658e-08
1.32404e-05
1.3881e-05
8.4092e-09
1.3879e-05
-1.54685e-08
1.38795e-05
1.62406e-08
1.38786e-05
3.9158e-08
1.38745e-05
1.58437e-08
1.38724e-05
1.05116e-08
1.38696e-05
4.16742e-08
1.38649e-05
5.23631e-08
1.38653e-05
6.69367e-08
1.38696e-05
8.17614e-08
1.38709e-05
8.05871e-08
1.38705e-05
7.13598e-08
1.38716e-05
7.33641e-08
1.38722e-05
7.49847e-08
1.3871e-05
6.9869e-08
1.38699e-05
6.45714e-08
1.38705e-05
6.46658e-08
1.38723e-05
6.71701e-08
1.38737e-05
6.71328e-08
6.35248e-08
1.38749e-05
1.45445e-05
7.60983e-09
1.45416e-05
-1.2561e-08
1.45424e-05
1.54285e-08
1.45419e-05
3.9666e-08
1.45369e-05
2.07854e-08
1.45345e-05
1.29514e-08
1.45333e-05
4.29003e-08
1.45296e-05
5.60469e-08
1.4529e-05
6.75249e-08
1.45323e-05
7.84823e-08
1.4534e-05
7.88897e-08
1.45338e-05
7.15231e-08
1.45347e-05
7.24556e-08
1.45355e-05
7.41675e-08
1.4535e-05
7.04149e-08
1.45342e-05
6.53231e-08
1.45347e-05
6.41886e-08
1.45365e-05
6.53308e-08
1.45382e-05
6.54608e-08
6.20999e-08
1.45396e-05
1.52397e-05
6.81968e-09
1.52362e-05
-9.0687e-09
1.52369e-05
1.46762e-08
1.5237e-05
3.95787e-08
1.52316e-05
2.61811e-08
1.52284e-05
1.62037e-08
1.52282e-05
4.31036e-08
1.52258e-05
5.84126e-08
1.52247e-05
6.86514e-08
1.52269e-05
7.62335e-08
1.52286e-05
7.71651e-08
1.52288e-05
7.1374e-08
1.52297e-05
7.15901e-08
1.52307e-05
7.31539e-08
1.52306e-05
7.04768e-08
1.52303e-05
6.56615e-08
1.52308e-05
6.37145e-08
1.52325e-05
6.35728e-08
1.52344e-05
6.352e-08
6.05355e-08
1.5236e-05
1.59681e-05
6.05049e-09
1.59644e-05
-5.37153e-09
1.59647e-05
1.43547e-08
1.59654e-05
3.88798e-08
1.59601e-05
3.15509e-08
1.59559e-05
2.03914e-08
1.5956e-05
4.29872e-08
1.59549e-05
5.94607e-08
1.59538e-05
6.97645e-08
1.59551e-05
7.49138e-08
1.59566e-05
7.56785e-08
1.59571e-05
7.09462e-08
1.59579e-05
7.07303e-08
1.59591e-05
7.19241e-08
1.59595e-05
7.00988e-08
1.59595e-05
6.5647e-08
1.59601e-05
6.3104e-08
1.59618e-05
6.19628e-08
1.59639e-05
6.13973e-08
5.88009e-08
1.59656e-05
1.67313e-05
5.35295e-09
1.67276e-05
-1.68886e-09
1.67273e-05
1.46369e-08
1.67285e-05
3.7699e-08
1.67237e-05
3.64078e-08
1.67187e-05
2.53754e-08
1.67185e-05
4.31859e-08
1.67185e-05
5.94407e-08
1.67178e-05
7.04196e-08
1.67185e-05
7.42815e-08
1.67196e-05
7.45645e-08
1.67201e-05
7.03889e-08
1.67211e-05
6.98233e-08
1.67224e-05
7.05352e-08
1.67233e-05
6.92796e-08
1.67236e-05
6.52965e-08
1.67244e-05
6.23161e-08
1.67259e-05
6.04281e-08
1.67281e-05
5.92658e-08
5.68333e-08
1.673e-05
1.75309e-05
4.78757e-09
1.75276e-05
1.63856e-09
1.75266e-05
1.56755e-08
1.75279e-05
3.6338e-08
1.75239e-05
4.04152e-08
1.75185e-05
3.08268e-08
1.75175e-05
4.41187e-08
1.75182e-05
5.87744e-08
1.75182e-05
7.04343e-08
1.75185e-05
7.39572e-08
1.75193e-05
7.38116e-08
1.75198e-05
6.98716e-08
1.75208e-05
6.88414e-08
1.75222e-05
6.90698e-08
1.75234e-05
6.80821e-08
1.75242e-05
6.45588e-08
1.75251e-05
6.13814e-08
1.75267e-05
5.88525e-08
1.75287e-05
5.72164e-08
5.46797e-08
1.75309e-05
1.83687e-05
4.41005e-09
1.83659e-05
4.47906e-09
1.83641e-05
1.74105e-08
1.83654e-05
3.51362e-08
1.83623e-05
4.34192e-08
1.83569e-05
3.62841e-08
1.83551e-05
4.5902e-08
1.83559e-05
5.8002e-08
1.83565e-05
6.98452e-08
1.83569e-05
7.35711e-08
1.83573e-05
7.33392e-08
1.83577e-05
6.94505e-08
1.83587e-05
6.78685e-08
1.83603e-05
6.75359e-08
1.83617e-05
6.66151e-08
1.83629e-05
6.34139e-08
1.8364e-05
6.02632e-08
1.83656e-05
5.72137e-08
1.83676e-05
5.51908e-08
5.24813e-08
1.83698e-05
1.92465e-05
4.25482e-09
1.92442e-05
6.79692e-09
1.9242e-05
1.96374e-08
1.92427e-05
3.44305e-08
1.92406e-05
4.55125e-08
1.92356e-05
4.12795e-08
1.92331e-05