/*--------------------------------*- C++ -*----------------------------------*\
| =========                 |                                                 |
| \\      /  F ield         | OpenFOAM: The Open Source CFD Toolbox           |
|  \\    /   O peration     | Version:  3.0.1                                 |
|   \\  /    A nd           | Web:      www.OpenFOAM.org                      |
|    \\/     M anipulation  |                                                 |
\*---------------------------------------------------------------------------*/
FoamFile
{
    version     2.0;
    format      ascii;
    class       volVectorField;
    location    "2.3";
    object      U;
}
// * * * * * * * * * * * * * * * * * * * * * * * * * * * * * * * * * * * * * //

dimensions      [0 1 -1 0 0 0 0];

internalField   nonuniform List<vector> 
9600
(
(0.86097 0.00232036 0)
(1.12471 -0.0059893 0)
(0.881658 0.00424107 0)
(1.17474 0.00685303 0)
(0.786719 -0.00243562 0)
(1.09946 -0.00528078 0)
(0.92617 -0.00574305 0)
(1.10147 -0.00558707 0)
(0.894906 0.0113779 0)
(1.11906 0.00179952 0)
(0.830294 0.0137588 0)
(1.11304 0.00662682 0)
(0.811485 -0.00381609 0)
(1.10166 -0.00324031 0)
(0.846108 -0.00918478 0)
(1.09159 -0.00544304 0)
(0.864213 -0.00847344 0)
(1.10079 -0.00422176 0)
(0.861162 -0.00549102 0)
(1.10799 -0.00196636 0)
(0.869606 0.00234544 0)
(1.11354 -0.00594703 0)
(0.887802 0.00361138 0)
(1.1609 0.00783684 0)
(0.812396 -0.00182933 0)
(1.08306 -0.00654912 0)
(0.936801 -0.00609076 0)
(1.09015 -0.004967 0)
(0.907035 0.0108943 0)
(1.09961 0.00313359 0)
(0.854415 0.0135972 0)
(1.07655 0.00735789 0)
(0.86426 -0.00377835 0)
(1.0532 -0.00381401 0)
(0.908405 -0.00901755 0)
(1.03376 -0.00593811 0)
(0.939489 -0.00853221 0)
(1.02251 -0.00460646 0)
(0.963396 -0.00486827 0)
(0.994236 -0.00177498 0)
(0.886422 0.00239566 0)
(1.09465 -0.00594907 0)
(0.90131 0.0030939 0)
(1.13471 0.00864956 0)
(0.853914 -0.00137602 0)
(1.05677 -0.00755844 0)
(0.955159 -0.00628721 0)
(1.06918 -0.00451944 0)
(0.930444 0.010637 0)
(1.06816 0.00401695 0)
(0.894214 0.0136708 0)
(1.03249 0.00729137 0)
(0.922948 -0.00355908 0)
(1.00768 -0.00456899 0)
(0.957661 -0.00863633 0)
(0.995457 -0.00667137 0)
(0.976275 -0.00819827 0)
(0.992542 -0.0052967 0)
(0.984873 -0.00398573 0)
(0.981894 -0.0017336 0)
(0.908902 0.00246663 0)
(1.07179 -0.00594207 0)
(0.919996 0.00274063 0)
(1.1016 0.00906171 0)
(0.900373 -0.000842298 0)
(1.02908 -0.00830678 0)
(0.974792 -0.00651108 0)
(1.0457 -0.00421352 0)
(0.955324 0.0106506 0)
(1.03738 0.00453208 0)
(0.931425 0.0140319 0)
(1.00341 0.00688156 0)
(0.961799 -0.00320295 0)
(0.987584 -0.00511614 0)
(0.978772 -0.00846295 0)
(0.987028 -0.00703412 0)
(0.984871 -0.00816277 0)
(0.990447 -0.00554744 0)
(0.986546 -0.00357781 0)
(0.98547 -0.00105276 0)
(0.933263 0.00255101 0)
(1.04931 -0.00592185 0)
(0.939899 0.0024714 0)
(1.06852 0.00921637 0)
(0.941653 -0.00027443 0)
(1.00804 -0.00886584 0)
(0.989296 -0.00677636 0)
(1.02666 -0.00396729 0)
(0.97351 0.0107727 0)
(1.0158 0.00489275 0)
(0.956689 0.014398 0)
(0.992473 0.00648445 0)
(0.981802 -0.00296703 0)
(0.985503 -0.00540405 0)
(0.9863 -0.00842414 0)
(0.988873 -0.00725004 0)
(0.988228 -0.00811472 0)
(0.991433 -0.00570896 0)
(0.989476 -0.00316655 0)
(0.987193 -0.000605275 0)
(0.955688 0.0026323 0)
(1.0308 -0.00589212 0)
(0.95735 0.0022997 0)
(1.04137 0.00918003 0)
(0.972165 0.000215056 0)
(0.996968 -0.00920778 0)
(0.996575 -0.00703417 0)
(1.01417 -0.00376256 0)
(0.983435 0.0109339 0)
(1.00465 0.00517373 0)
(0.971221 0.014593 0)
(0.99226 0.00614797 0)
(0.992077 -0.00285449 0)
(0.989498 -0.0055195 0)
(0.990502 -0.00837381 0)
(0.991205 -0.00742894 0)
(0.990898 -0.00799916 0)
(0.991903 -0.00584855 0)
(0.991593 -0.00287131 0)
(0.988714 -0.000102897 0)
(0.973543 0.0026935 0)
(1.01788 -0.00584159 0)
(0.970443 0.00221333 0)
(1.02277 0.00900585 0)
(0.991486 0.000582689 0)
(0.994229 -0.00933923 0)
(0.998524 -0.00725001 0)
(1.00643 -0.00359478 0)
(0.987776 0.0110793 0)
(1.0007 0.00537745 0)
(0.979904 0.0146249 0)
(0.995965 0.00584572 0)
(0.9985 -0.00277512 0)
(0.994074 -0.00554325 0)
(0.993968 -0.00826819 0)
(0.992963 -0.00754272 0)
(0.992447 -0.00788239 0)
(0.992183 -0.00592229 0)
(0.9921 -0.00266321 0)
(0.989683 0.000423958 0)
(0.985959 0.00272571 0)
(1.01011 -0.00576548 0)
(0.979234 0.00217634 0)
(1.01193 0.00875609 0)
(1.00215 0.000830711 0)
(0.995988 -0.00931433 0)
(0.998154 -0.00739054 0)
(1.00106 -0.00346325 0)
(0.989558 0.0111618 0)
(1.00016 0.00550376 0)
(0.986211 0.0145456 0)
(1.00027 0.00556946 0)
(1.00317 -0.0026878 0)
(0.997902 -0.00551622 0)
(0.996837 -0.00810161 0)
(0.99451 -0.00756758 0)
(0.993228 -0.0077713 0)
(0.992192 -0.0059 0)
(0.991736 -0.00249897 0)
(0.989744 0.000912345 0)
(0.993577 0.00272969 0)
(1.00592 -0.00567024 0)
(0.984879 0.00216364 0)
(1.00637 0.00847794 0)
(1.00727 0.000978284 0)
(0.998989 -0.00919249 0)
(0.997483 -0.00743418 0)
(0.99687 -0.00336089 0)
(0.990487 0.0111658 0)
(1.00055 0.00555339 0)
(0.991334 0.014385 0)
(1.00394 0.00532485 0)
(1.00656 -0.0025938 0)
(1.00081 -0.00543863 0)
(0.999067 -0.00789137 0)
(0.995887 -0.00751104 0)
(0.993775 -0.00763889 0)
(0.992026 -0.00577057 0)
(0.991054 -0.00236196 0)
(0.989197 0.00134857 0)
(0.99777 0.00271275 0)
(1.00372 -0.00556613 0)
(0.988609 0.00216327 0)
(1.00368 0.00819656 0)
(1.00929 0.00105639 0)
(1.00155 -0.00901909 0)
(0.997208 -0.0073847 0)
(0.993651 -0.00327763 0)
(0.991182 0.0110977 0)
(1.00084 0.00553266 0)
(0.995323 0.0141563 0)
(1.00661 0.00512044 0)
(1.00883 -0.00249612 0)
(1.00284 -0.00530662 0)
(1.00068 -0.00767052 0)
(0.997025 -0.00737734 0)
(0.994298 -0.00747292 0)
(0.991901 -0.00555544 0)
(0.990378 -0.00222807 0)
(0.988467 0.00174295 0)
(0.999896 0.00268387 0)
(1.00244 -0.00546177 0)
(0.991213 0.00216941 0)
(1.00237 0.00792287 0)
(1.00977 0.00109252 0)
(1.0032 -0.0088231 0)
(0.997292 -0.00726051 0)
(0.991423 -0.0032034 0)
(0.991791 0.0109727 0)
(1.00089 0.00545906 0)
(0.998124 0.0138685 0)
(1.00828 0.00495657 0)
(1.01016 -0.00239791 0)
(1.00412 -0.0051298 0)
(1.00176 -0.00746117 0)
(0.997886 -0.00716237 0)
(0.994809 -0.00729236 0)
(0.991926 -0.00527632 0)
(0.989916 -0.00207197 0)
(0.987868 0.00210248 0)
(1.00093 0.00264974 0)
(1.00162 -0.00536134 0)
(0.993054 0.00217778 0)
(1.00169 0.00766176 0)
(1.00962 0.00110258 0)
(1.00405 -0.00861962 0)
(0.997527 -0.00708534 0)
(0.990088 -0.00313177 0)
(0.992339 0.0108073 0)
(1.00087 0.00535302 0)
(0.999899 0.0135322 0)
(1.00918 0.00482663 0)
(1.01081 -0.0023078 0)
(1.00482 -0.00491518 0)
(1.00242 -0.00726872 0)
(0.998477 -0.00688841 0)
(0.995271 -0.00710478 0)
(0.992094 -0.00493983 0)
(0.989742 -0.00186774 0)
(0.987564 0.00240264 0)
(1.00142 0.00261387 0)
(1.00106 -0.00526505 0)
(0.994299 0.00218527 0)
(1.00135 0.00741278 0)
(1.0093 0.00110049 0)
(1.00437 -0.00841383 0)
(0.997765 -0.00688069 0)
(0.989429 -0.00305853 0)
(0.99282 0.0106125 0)
(1.00089 0.0052323 0)
(1.00094 0.0131546 0)
(1.00954 0.00473344 0)
(1.01104 -0.00223573 0)
(1.00513 -0.00466364 0)
(1.00277 -0.0070919 0)
(0.998838 -0.00658432 0)
(0.995657 -0.00690183 0)
(0.992353 -0.00457567 0)
(0.989823 -0.00158806 0)
(0.987579 0.0026352 0)
(1.00165 0.00257735 0)
(1.00068 -0.00517076 0)
(0.995082 0.00218989 0)
(1.00122 0.0071714 0)
(1.00901 0.0010935 0)
(1.00439 -0.00820509 0)
(0.997953 -0.00666211 0)
(0.989215 -0.00298104 0)
(0.99323 0.010394 0)
(1.00096 0.00510918 0)
(1.00152 0.0127432 0)
(1.00956 0.00467277 0)
(1.01103 -0.00218385 0)
(1.00519 -0.00437773 0)
(1.00293 -0.00693679 0)
(0.999033 -0.00625336 0)
(0.995963 -0.00667581 0)
(0.992655 -0.00421964 0)
(0.990083 -0.00124915 0)
(0.987854 0.002808 0)
(1.00177 0.00254012 0)
(1.00043 -0.00507577 0)
(0.995554 0.00219031 0)
(1.00118 0.00693235 0)
(1.00881 0.00108557 0)
(1.00425 -0.00799092 0)
(0.99809 -0.00643915 0)
(0.989264 -0.0028968 0)
(0.993577 0.0101543 0)
(1.00106 0.00499204 0)
(1.00183 0.0123038 0)
(1.00937 0.00463865 0)
(1.01091 -0.00215141 0)
(1.00511 -0.00406054 0)
(1.00299 -0.00679781 0)
(0.999127 -0.0059129 0)
(0.996201 -0.00641221 0)
(0.992971 -0.00390347 0)
(0.990445 -0.000852793 0)
(0.988298 0.00296031 0)
(1.00183 0.00250176 0)
(1.00027 -0.00497789 0)
(0.995849 0.00218558 0)
(1.00118 0.00669276 0)
(1.00866 0.00107722 0)
(1.00406 -0.00776782 0)
(0.9982 -0.00621789 0)
(0.989454 -0.00280467 0)
(0.993874 0.00989456 0)
(1.00116 0.00488635 0)
(1.002 0.0118375 0)
(1.00906 0.00463172 0)
(1.01074 -0.00213999 0)
(1.00497 -0.00372197 0)
(1.00299 -0.0066543 0)
(0.999172 -0.00558714 0)
(0.996388 -0.00608901 0)
(0.993292 -0.00364403 0)
(0.990859 -0.000423508 0)
(0.988829 0.00310832 0)
(1.00187 0.00246173 0)
(1.00017 -0.00487543 0)
(0.996064 0.00217498 0)
(1.00118 0.00645184 0)
(1.00852 0.00106735 0)
(1.00386 -0.00753421 0)
(0.998302 -0.0060016 0)
(0.989721 -0.00270229 0)
(0.994135 0.00961356 0)
(1.00124 0.00479426 0)
(1.00208 0.0113465 0)
(1.00868 0.00464948 0)
(1.01054 -0.00214935 0)
(1.00481 -0.00336774 0)
(1.00296 -0.00649902 0)
(0.999203 -0.00528417 0)
(0.99654 -0.00569664 0)
(0.993613 -0.00342539 0)
(0.991294 1.23757e-05 0)
(0.989389 0.00326636 0)
(1.00188 0.0024195 0)
(1.00011 -0.00476762 0)
(0.99625 0.00215879 0)
(1.00116 0.00620943 0)
(1.00836 0.00105583 0)
(1.00369 -0.0072886 0)
(0.998408 -0.00579415 0)
(0.990033 -0.00258648 0)
(0.994368 0.00931083 0)
(1.00132 0.0047161 0)
(1.00213 0.010835 0)
(1.00827 0.00468336 0)
(1.01032 -0.00217226 0)
(1.00465 -0.00300748 0)
(1.00291 -0.00631699 0)
(0.999242 -0.00502333 0)
(0.996669 -0.0052414 0)
(0.99394 -0.00322651 0)
(0.991735 0.000428479 0)
(0.989944 0.0034622 0)
(1.00186 0.0023748 0)
(1.00009 -0.00465433 0)
(0.996425 0.00213693 0)
(1.00114 0.0059679 0)
(1.00816 0.00103967 0)
(1.00353 -0.00702903 0)
(0.998515 -0.00559759 0)
(0.990382 -0.00245829 0)
(0.994576 0.00898986 0)
(1.00139 0.00465281 0)
(1.00214 0.0103043 0)
(1.00784 0.00473106 0)
(1.01008 -0.00220015 0)
(1.00449 -0.00266266 0)
(1.00283 -0.00608301 0)
(0.9993 -0.00481524 0)
(0.996782 -0.00473947 0)
(0.994272 -0.00304215 0)
(0.992179 0.000773637 0)
(0.990479 0.00369438 0)
(1.00182 0.00232723 0)
(1.0001 -0.00453475 0)
(0.996585 0.00210784 0)
(1.00113 0.0057305 0)
(1.00791 0.00101499 0)
(1.0034 -0.00675495 0)
(0.998616 -0.00541227 0)
(0.990762 -0.00231626 0)
(0.99476 0.00865131 0)
(1.00147 0.00460308 0)
(1.00212 0.00975945 0)
(1.00742 0.00478471 0)
(1.00981 -0.00222609 0)
(1.00435 -0.00234301 0)
(1.00274 -0.00579513 0)
(0.999382 -0.00465169 0)
(0.996883 -0.00421371 0)
(0.994609 -0.0028429 0)
(0.992627 0.00103667 0)
(0.990992 0.0039603 0)
(1.00174 0.00227648 0)
(1.00016 -0.0044084 0)
(0.996726 0.00207071 0)
(1.00115 0.00549927 0)
(1.00763 0.00098017 0)
(1.00329 -0.00646449 0)
(0.9987 -0.00524185 0)
(0.991173 -0.00215729 0)
(0.994922 0.00829605 0)
(1.00155 0.00456338 0)
(1.0021 0.00920946 0)
(1.007 0.00483396 0)
(1.00952 -0.00223505 0)
(1.00422 -0.00205775 0)
(1.00261 -0.00545578 0)
(0.999489 -0.0045183 0)
(0.996977 -0.00367761 0)
(0.994946 -0.00260066 0)
(0.993081 0.00121151 0)
(0.991486 0.00423758 0)
(1.00162 0.00222226 0)
(1.00024 -0.00427473 0)
(0.996842 0.00202498 0)
(1.00119 0.00527621 0)
(1.00732 0.00093368 0)
(1.00321 -0.00615795 0)
(0.998764 -0.00508281 0)
(0.991607 -0.00199083 0)
(0.995066 0.00792928 0)
(1.00164 0.00453059 0)
(1.00206 0.008661 0)
(1.0066 0.0048792 0)
(1.00921 -0.00221966 0)
(1.00411 -0.00181256 0)
(1.00247 -0.00505789 0)
(0.999617 -0.00439892 0)
(0.997073 -0.00316581 0)
(0.995275 -0.00230252 0)
(0.993543 0.0013107 0)
(0.991971 0.0044999 0)
(1.00148 0.00216419 0)
(1.00034 -0.0041329 0)
(0.996937 0.00196812 0)
(1.00124 0.0050643 0)
(1.00699 0.000872511 0)
(1.00313 -0.00583544 0)
(0.99881 -0.00493659 0)
(0.992054 -0.00181105 0)
(0.995199 0.00755168 0)
(1.00174 0.00449633 0)
(1.00201 0.0081251 0)
(1.0062 0.00490096 0)
(1.00888 -0.00217694 0)
(1.00402 -0.00160875 0)
(1.0023 -0.00461208 0)
(0.999758 -0.00428289 0)
(0.997179 -0.00269081 0)
(0.995592 -0.0019463 0)
(0.994012 0.00135623 0)
(0.992452 0.00472288 0)
(1.00133 0.0021025 0)
(1.00046 -0.00398326 0)
(0.99702 0.00189939 0)
(1.00131 0.00486404 0)
(1.00666 0.00079807 0)
(1.00306 -0.00549911 0)
(0.998847 -0.00480294 0)
(0.992503 -0.00162246 0)
(0.995328 0.00717227 0)
(1.00183 0.00445299 0)
(1.00197 0.00760652 0)
(1.00582 0.0048964 0)
(1.00855 -0.00210489 0)
(1.00393 -0.00144721 0)
(1.00213 -0.004134 0)
(0.999907 -0.00415084 0)
(0.997307 -0.00225617 0)
(0.99589 -0.001542 0)
(0.994488 0.00136535 0)
(0.992937 0.00488101 0)
(1.00118 0.00203682 0)
(1.00057 -0.00382495 0)
(0.997105 0.00181906 0)
(1.00136 0.00467684 0)
(1.00633 0.000709996 0)
(1.00299 -0.00515015 0)
(0.998885 -0.00467395 0)
(0.992944 -0.00143932 0)
(0.995461 0.00679996 0)
(1.00191 0.00439798 0)
(1.00193 0.00710953 0)
(1.00543 0.0048825 0)
(1.00821 -0.0020002 0)
(1.00387 -0.00131841 0)
(1.00195 -0.00363094 0)
(1.00006 -0.00399437 0)
(0.997465 -0.00187612 0)
(0.996169 -0.0010998 0)
(0.994965 0.00136225 0)
(0.993436 0.00495754 0)
(1.00104 0.00196663 0)
(1.00067 -0.00365593 0)
(0.997202 0.00172415 0)
(1.0014 0.00450551 0)
(1.00602 0.000607886 0)
(1.00291 -0.00478916 0)
(0.998934 -0.00455126 0)
(0.99337 -0.00125791 0)
(0.995603 0.00643866 0)
(1.00197 0.00432011 0)
(1.00191 0.00664061 0)
(1.00504 0.00484615 0)
(1.00788 -0.00187066 0)
(1.00381 -0.00121687 0)
(1.00177 -0.00311157 0)
(1.0002 -0.00380796 0)
(0.997661 -0.0015555 0)
(0.996429 -0.000633346 0)
(0.995438 0.00136557 0)
(0.993957 0.00493371 0)
(1.00092 0.00189227 0)
(1.00075 -0.00347667 0)
(0.997318 0.00161499 0)
(1.00142 0.00434732 0)
(1.00573 0.000495899 0)
(1.00282 -0.00442397 0)
(0.998999 -0.00442693 0)
(0.993778 -0.00108759 0)
(0.995757 0.00610144 0)
(1.002 0.00421132 0)
(1.00191 0.00619711 0)
(1.00466 0.00478746 0)
(1.00755 -0.00171783 0)
(1.00377 -0.00114226 0)
(1.0016 -0.00258634 0)
(1.00033 -0.00357258 0)
(0.997897 -0.00129395 0)
(0.996676 -0.000158549 0)
(0.995895 0.00140907 0)
(0.994507 0.004802 0)
(1.00082 0.00181347 0)
(1.0008 -0.00328687 0)
(0.997455 0.001491 0)
(1.00141 0.00420094 0)
(1.00545 0.000378346 0)
(1.00272 -0.00405682 0)
(0.999079 -0.00429647 0)
(0.994173 -0.000938878 0)
(0.995921 0.00579157 0)
(1.00202 0.00408673 0)
(1.00192 0.00577445 0)
(1.00428 0.00472182 0)
(1.00722 -0.00154233 0)
(1.00373 -0.00108806 0)
(1.00145 -0.00206585 0)
(1.00045 -0.00328414 0)
(0.99817 -0.00109167 0)
(0.996918 0.000304722 0)
(0.996323 0.00152724 0)
(0.995082 0.00458147 0)
(1.00075 0.00173043 0)
(1.00083 -0.00308737 0)
(0.997609 0.00135405 0)
(1.00139 0.0040643 0)
(1.00519 0.00025166 0)
(1.0026 -0.00369559 0)
(0.999171 -0.00415618 0)
(0.994557 -0.000820401 0)
(0.996094 0.0055121 0)
(1.00202 0.00394742 0)
(1.00193 0.00536797 0)
(1.00391 0.00465816 0)
(1.00688 -0.00134884 0)
(1.00372 -0.00104938 0)
(1.0013 -0.00155664 0)
(1.00054 -0.0029403 0)
(0.998475 -0.000937201 0)
(0.997169 0.000731523 0)
(0.99671 0.00173224 0)
(0.99567 0.00431682 0)
(1.00069 0.00164385 0)
(1.00084 -0.00287889 0)
(0.997776 0.00120481 0)
(1.00136 0.00393888 0)
(1.00494 0.000121702 0)
(1.00247 -0.00334891 0)
(0.999269 -0.00399155 0)
(0.994937 -0.000737323 0)
(0.996271 0.00526068 0)
(1.00201 0.00379213 0)
(1.00196 0.00497225 0)
(1.00355 0.00459382 0)
(1.00655 -0.0011293 0)
(1.00372 -0.00102579 0)
(1.00118 -0.00107324 0)
(1.0006 -0.00254116 0)
(0.998802 -0.000805916 0)
(0.997438 0.00109413 0)
(0.997052 0.00201557 0)
(0.996246 0.00407321 0)
(1.00064 0.00155232 0)
(1.00083 -0.00265949 0)
(0.997949 0.00104504 0)
(1.00133 0.00382148 0)
(1.0047 -8.5013e-08 0)
(1.00234 -0.00302231 0)
(0.999366 -0.00379638 0)
(0.995316 -0.000686055 0)
(0.996451 0.00502633 0)
(1.00199 0.00364019 0)
(1.002 0.00458204 0)
(1.0032 0.0045221 0)
(1.0062 -0.000880053 0)
(1.00373 -0.00101518 0)
(1.00108 -0.000626918 0)
(1.00063 -0.00209088 0)
(0.999136 -0.000686699 0)
(0.997736 0.00137156 0)
(0.997353 0.00234023 0)
(0.99678 0.00391908 0)
(1.0006 0.00145772 0)
(1.00082 -0.00243399 0)
(0.998123 0.000879347 0)
(1.00128 0.00370443 0)
(1.00446 -0.000107465 0)
(1.0022 -0.00272881 0)
(0.999457 -0.00357091 0)
(0.995693 -0.000665099 0)
(0.996634 0.00480478 0)
(1.00195 0.00350099 0)
(1.00204 0.00419691 0)
(1.00288 0.00444125 0)
(1.00585 -0.0006027 0)
(1.00376 -0.00100169 0)
(1.001 -0.000224272 0)
(1.00062 -0.00160099 0)
(0.999463 -0.000563838 0)
(0.998066 0.00156596 0)
(0.997631 0.00265296 0)
(0.997251 0.00388429 0)
(1.00056 0.00135994 0)
(1.0008 -0.00220444 0)
(0.998296 0.000711775 0)
(1.00124 0.00358127 0)
(1.00423 -0.000192649 0)
(1.00207 -0.00247563 0)
(0.999539 -0.0033133 0)
(0.996068 -0.000674459 0)
(0.99682 0.00458148 0)
(1.00191 0.00338072 0)
(1.00209 0.00382671 0)
(1.00258 0.0043496 0)
(1.00549 -0.000295349 0)
(1.0038 -0.000976598 0)
(1.00097 0.000117034 0)
(1.00059 -0.00108688 0)
(0.999771 -0.000419966 0)
(0.998426 0.00169956 0)
(0.997904 0.00291822 0)
(0.997654 0.00394546 0)
(1.00052 0.00126055 0)
(1.00078 -0.00197419 0)
(0.998465 0.000545747 0)
(1.00119 0.0034461 0)
(1.00401 -0.000248286 0)
(1.00195 -0.00226084 0)
(0.999611 -0.00303636 0)
(0.996437 -0.000692155 0)
(0.99701 0.00434723 0)
(1.00186 0.0032806 0)
(1.00215 0.00347215 0)
(1.00231 0.00424601 0)
(1.00511 4.03362e-05 0)
(1.00383 -0.000933242 0)
(1.00097 0.000396924 0)
(1.00054 -0.000562617 0)
(1.00005 -0.000249314 0)
(0.998811 0.00178509 0)
(0.998184 0.00312731 0)
(0.997998 0.0040512 0)
(1.00049 0.00115955 0)
(1.00075 -0.00174477 0)
(0.99863 0.00038786 0)
(1.00115 0.00329291 0)
(1.00379 -0.000271743 0)
(1.00182 -0.00208343 0)
(0.999674 -0.00274106 0)
(0.996796 -0.000708077 0)
(0.997206 0.00409873 0)
(1.0018 0.00319398 0)
(1.00221 0.00313984 0)
(1.00207 0.00412794 0)
(1.00473 0.000399481 0)
(1.00386 -0.000861041 0)
(1.00101 0.000614674 0)
(1.00048 -5.29109e-05 0)
(1.00029 -5.17539e-05 0)
(0.999212 0.00182415 0)
(0.998482 0.00328856 0)
(0.9983 0.00415944 0)
(1.00045 0.00105756 0)
(1.00072 -0.00151946 0)
(0.998789 0.000246532 0)
(1.0011 0.00311167 0)
(1.00356 -0.000266081 0)
(1.00171 -0.00193311 0)
(0.999731 -0.00244397 0)
(0.997141 -0.000715148 0)
(0.997408 0.00384152 0)
(1.00173 0.00311713 0)
(1.00226 0.00284341 0)
(1.00188 0.00399428 0)
(1.00434 0.000765491 0)
(1.00388 -0.000752323 0)
(1.00109 0.000763663 0)
(1.00041 0.000439984 0)
(1.00048 0.00018885 0)
(0.999623 0.00182547 0)
(0.998804 0.00340664 0)
(0.998573 0.00426269 0)
(1.00042 0.00095781 0)
(1.00068 -0.00130689 0)
(0.998939 0.000128703 0)
(1.00106 0.00290045 0)
(1.00334 -0.000238585 0)
(1.0016 -0.00179243 0)
(0.999782 -0.00216271 0)
(0.997471 -0.000698123 0)
(0.997615 0.00358517 0)
(1.00166 0.00305417 0)
(1.00232 0.00258515 0)
(1.00172 0.00384086 0)
(1.00395 0.00111928 0)
(1.00388 -0.000603818 0)
(1.00122 0.000845152 0)
(1.00035 0.000896948 0)
(1.00063 0.000482349 0)
(1.00003 0.0018034 0)
(0.999155 0.00346568 0)
(0.99883 0.00436499 0)
(1.00039 0.000859556 0)
(1.00063 -0.00110766 0)
(0.999079 3.78719e-05 0)
(1.00102 0.00266799 0)
(1.00312 -0.000203856 0)
(1.0015 -0.00165797 0)
(0.999829 -0.00188745 0)
(0.997784 -0.000653799 0)
(0.997826 0.00333204 0)
(1.00158 0.00300628 0)
(1.00237 0.00237124 0)
(1.00161 0.00366376 0)
(1.00357 0.00144579 0)
(1.00384 -0.000423848 0)
(1.00138 0.000872019 0)
(1.00031 0.00128428 0)
(1.00071 0.000821617 0)
(1.00042 0.00178324 0)
(0.999542 0.00344812 0)
(0.999084 0.00444961 0)
(1.00036 0.000764785 0)
(1.00058 -0.00092549 0)
(0.999207 -2.86329e-05 0)
(1.00098 0.00242202 0)
(1.00291 -0.000164601 0)
(1.0014 -0.00153019 0)
(0.999873 -0.00162149 0)
(0.998079 -0.000580697 0)
(0.998041 0.00309482 0)
(1.0015 0.00296445 0)
(1.00241 0.00220185 0)
(1.00153 0.00345945 0)
(1.0032 0.00173036 0)
(1.00377 -0.000210891 0)
(1.00156 0.000868923 0)
(1.00032 0.00159534 0)
(1.00076 0.00119083 0)
(1.00077 0.00180105 0)
(0.999959 0.00336499 0)
(0.999357 0.00449113 0)
(1.00033 0.000674553 0)
(1.00053 -0.000764728 0)
(0.999322 -7.0405e-05 0)
(1.00094 0.0021661 0)
(1.00271 -0.000129205 0)
(1.00131 -0.001409 0)
(0.999915 -0.00136956 0)
(0.998355 -0.00047738 0)
(0.998258 0.00288111 0)
(1.00142 0.00292314 0)
(1.00243 0.00206857 0)
(1.00148 0.00324003 0)
(1.00286 0.00196912 0)
(1.00367 3.64814e-05 0)
(1.00177 0.000855123 0)
(1.00037 0.00182378 0)
(1.00077 0.00156404 0)
(1.00106 0.00187883 0)
(1.00039 0.00324797 0)
(0.999663 0.00447131 0)
(1.0003 0.000588893 0)
(1.00048 -0.000623468 0)
(0.999424 -9.46454e-05 0)
(1.0009 0.00190648 0)
(1.00251 -9.79213e-05 0)
(1.00123 -0.00129561 0)
(0.999957 -0.00113218 0)
(0.998614 -0.000352903 0)
(0.998475 0.00269002 0)
(1.00134 0.00287706 0)
(1.00245 0.0019656 0)
(1.00146 0.00302276 0)
(1.00254 0.00216477 0)
(1.00354 0.000310665 0)
(1.00197 0.000847949 0)
(1.00047 0.00197297 0)
(1.00077 0.00191591 0)
(1.00129 0.0020151 0)
(1.00082 0.00312949 0)
(1.00001 0.00438369 0)
(1.00027 0.000509901 0)
(1.00043 -0.000507732 0)
(0.999513 -0.000102031 0)
(1.00087 0.00165768 0)
(1.00232 -7.55599e-05 0)
(1.00116 -0.00118728 0)
(1 -0.000919845 0)
(0.998855 -0.000210138 0)
(0.99869 0.00253295 0)
(1.00126 0.00283478 0)
(1.00244 0.00188874 0)
(1.00147 0.0028072 0)
(1.00227 0.00231537 0)
(1.00338 0.000598268 0)
(1.00217 0.00086071 0)
(1.00063 0.00205213 0)
(1.00078 0.00222474 0)
(1.00145 0.00219512 0)
(1.00122 0.00303702 0)
(1.00039 0.00424278 0)
(1.00024 0.000439189 0)
(1.00038 -0.000412961 0)
(0.99959 -9.51805e-05 0)
(1.00084 0.00142313 0)
(1.00215 -6.95363e-05 0)
(1.00109 -0.00107566 0)
(1.00005 -0.000746985 0)
(0.999084 -4.5886e-05 0)
(0.998901 0.00242427 0)
(1.00119 0.00280303 0)
(1.00243 0.00184566 0)
(1.00151 0.00259872 0)
(1.00203 0.00242343 0)
(1.0032 0.000888506 0)
(1.00235 0.000899745 0)
(1.00084 0.0020675 0)
(1.0008 0.00246856 0)
(1.00157 0.00239449 0)
(1.00157 0.00298275 0)
(1.0008 0.00407144 0)
(1.00022 0.000370097 0)
(1.00033 -0.000327618 0)
(0.999654 -8.79112e-05 0)
(1.0008 0.00121825 0)
(1.00199 -7.13657e-05 0)
(1.00103 -0.000971352 0)
(1.00011 -0.000606718 0)
(0.999304 0.000126054 0)
(0.999107 0.00234956 0)
(1.00112 0.0027702 0)
(1.00239 0.00182727 0)
(1.00156 0.00241219 0)
(1.00184 0.00249647 0)
(1.003 0.00118277 0)
(1.0025 0.000985881 0)
(1.00108 0.00205023 0)
(1.00087 0.00264964 0)
(1.00164 0.00260183 0)
(1.00187 0.00297486 0)
(1.00121 0.00389667 0)
(1.00019 0.000313656 0)
(1.00028 -0.000274929 0)
(0.999709 -5.6517e-05 0)
(1.00077 0.00102055 0)
(1.00184 -5.39656e-05 0)
(1.00097 -0.00083718 0)
(1.00017 -0.000451693 0)
(0.999518 0.000254842 0)
(0.999307 0.00225664 0)
(1.00105 0.0027227 0)
(1.00234 0.00181676 0)
(1.00163 0.00223659 0)
(1.0017 0.00251832 0)
(1.0028 0.00145612 0)
(1.0026 0.00111246 0)
(1.00134 0.00201641 0)
(1.00097 0.00276008 0)
(1.00168 0.00279478 0)
(1.00209 0.00300641 0)
(1.00159 0.00374086 0)
(1.00017 0.000265039 0)
(1.00024 -0.000239897 0)
(0.999754 -1.14781e-05 0)
(1.00074 0.000849269 0)
(1.00171 -1.00746e-05 0)
(1.00092 -0.000664341 0)
(1.00023 -0.000299248 0)
(0.999717 0.000321587 0)
(0.999505 0.00211454 0)
(1.00099 0.00264061 0)
(1.00227 0.00181009 0)
(1.0017 0.00207267 0)
(1.00161 0.00249346 0)
(1.00261 0.00169287 0)
(1.00266 0.00126776 0)
(1.0016 0.00198229 0)
(1.00112 0.00279986 0)
(1.00173 0.00295044 0)
(1.00227 0.00306102 0)
(1.00194 0.00361249 0)
(1.00015 0.00022041 0)
(1.0002 -0.000214119 0)
(0.999793 3.45383e-05 0)
(1.0007 0.000729188 0)
(1.00159 2.7192e-05 0)
(1.00088 -0.000494996 0)
(1.00029 -0.000160433 0)
(0.999901 0.000358623 0)
(0.999698 0.00194603 0)
(1.00094 0.00254759 0)
(1.00219 0.00182561 0)
(1.00177 0.00194945 0)
(1.00157 0.00244901 0)
(1.00244 0.0018981 0)
(1.00269 0.00145094 0)
(1.00185 0.00197757 0)
(1.00132 0.00279808 0)
(1.00178 0.00306531 0)
(1.00239 0.0031309 0)
(1.00224 0.00351849 0)
(1.00013 0.000187474 0)
(1.00017 -0.000205288 0)
(0.999827 8.50983e-05 0)
(1.00067 0.000630718 0)
(1.00149 4.96585e-05 0)
(1.00085 -0.000338605 0)
(1.00034 -1.20727e-05 0)
(1.00006 0.000397291 0)
(0.999891 0.0017932 0)
(1.00092 0.00246646 0)
(1.00211 0.00186718 0)
(1.00183 0.00186625 0)
(1.00156 0.00238084 0)
(1.00229 0.00205371 0)
(1.00269 0.00163457 0)
(1.00207 0.00199892 0)
(1.00153 0.00277167 0)
(1.00186 0.00313532 0)
(1.00248 0.00320344 0)
(1.00248 0.00346378 0)
(1.00012 0.000159399 0)
(1.00014 -0.000201356 0)
(0.99986 0.000126551 0)
(1.00064 0.000560311 0)
(1.00141 6.25049e-05 0)
(1.00083 -0.000205881 0)
(1.00038 0.000136755 0)
(1.00021 0.000461028 0)
(1.00008 0.0016648 0)
(1.00091 0.00236842 0)
(1.00202 0.00190456 0)
(1.00188 0.00181266 0)
(1.00159 0.00230294 0)
(1.00218 0.0021607 0)
(1.00267 0.00180486 0)
(1.00227 0.00203913 0)
(1.00176 0.00273022 0)
(1.00196 0.00316096 0)
(1.00255 0.00325842 0)
(1.00267 0.0034365 0)
(1.0001 0.000137911 0)
(1.00012 -0.000204094 0)
(0.999893 0.000163198 0)
(1.0006 0.000513662 0)
(1.00134 7.01913e-05 0)
(1.00082 -9.19976e-05 0)
(1.00042 0.00028786 0)
(1.00033 0.00054022 0)
(1.00026 0.00154191 0)
(1.00093 0.00224938 0)
(1.00194 0.00193556 0)
(1.00192 0.00179184 0)
(1.00163 0.00223659 0)
(1.0021 0.00222919 0)
(1.00264 0.00195064 0)
(1.00243 0.00208996 0)
(1.002 0.00268023 0)
(1.00209 0.00314762 0)
(1.00261 0.00328471 0)
(1.0028 0.00341836 0)
(1.00009 0.000121377 0)
(1.00011 -0.000207295 0)
(0.999927 0.000185944 0)
(1.00057 0.000491347 0)
(1.00128 8.29143e-05 0)
(1.00083 -1.89369e-06 0)
(1.00046 0.000425492 0)
(1.00044 0.000632602 0)
(1.00043 0.00144252 0)
(1.00096 0.00212636 0)
(1.00186 0.0019561 0)
(1.00194 0.00179147 0)
(1.00169 0.00217385 0)
(1.00205 0.0022645 0)
(1.0026 0.00206569 0)
(1.00256 0.00214646 0)
(1.00222 0.00263609 0)
(1.00224 0.00310919 0)
(1.00269 0.00328819 0)
(1.00291 0.00339843 0)
(1.00008 0.000108792 0)
(1.0001 -0.000207669 0)
(0.999965 0.000196214 0)
(1.00053 0.000486322 0)
(1.00122 0.000105093 0)
(1.00085 6.24469e-05 0)
(1.00051 0.000541647 0)
(1.00052 0.000735613 0)
(1.00058 0.0013748 0)
(1.00101 0.00200047 0)
(1.00181 0.00195628 0)
(1.00196 0.00180425 0)
(1.00176 0.00212324 0)
(1.00204 0.00228344 0)
(1.00258 0.00216117 0)
(1.00267 0.00220361 0)
(1.00244 0.0026007 0)
(1.00241 0.00305131 0)
(1.00277 0.00326676 0)
(1.003 0.0033656 0)
(1.00007 9.83592e-05 0)
(1.00009 -0.000200694 0)
(1.00001 0.000198223 0)
(1.0005 0.00049368 0)
(1.00117 0.000139728 0)
(1.00088 0.000106777 0)
(1.00057 0.000629534 0)
(1.00059 0.000837875 0)
(1.00071 0.001336 0)
(1.00108 0.00188084 0)
(1.00177 0.00193307 0)
(1.00197 0.00182122 0)
(1.00183 0.00209134 0)
(1.00204 0.00228993 0)
(1.00255 0.00223728 0)
(1.00275 0.00225368 0)
(1.00263 0.00256569 0)
(1.00258 0.0029792 0)
(1.00286 0.00322094 0)
(1.00308 0.00331962 0)
(1.00006 8.96241e-05 0)
(1.00008 -0.000183835 0)
(1.00005 0.000192655 0)
(1.00048 0.000506817 0)
(1.00113 0.000192616 0)
(1.00092 0.000139675 0)
(1.00064 0.000683351 0)
(1.00066 0.000930835 0)
(1.00082 0.00132641 0)
(1.00114 0.00178368 0)
(1.00175 0.00189475 0)
(1.00199 0.00182924 0)
(1.0019 0.002066 0)
(1.00207 0.0022823 0)
(1.00254 0.00228883 0)
(1.00281 0.00229954 0)
(1.0028 0.00253422 0)
(1.00276 0.00290088 0)
(1.00296 0.00315888 0)
(1.00316 0.00326186 0)
(1.00005 8.14597e-05 0)
(1.00008 -0.000155788 0)
(1.0001 0.000182734 0)
(1.00046 0.000517263 0)
(1.00108 0.000259986 0)
(1.00096 0.000172169 0)
(1.00072 0.000705051 0)
(1.00073 0.00100634 0)
(1.00091 0.00133968 0)
(1.00121 0.00170911 0)
(1.00175 0.00185391 0)
(1.00201 0.00182582 0)
(1.00197 0.00203829 0)
(1.00211 0.00226746 0)
(1.00254 0.00232029 0)
(1.00286 0.00234093 0)
(1.00294 0.00251489 0)
(1.00293 0.00281842 0)
(1.00307 0.00308303 0)
(1.00323 0.0031882 0)
(1.00005 7.3175e-05 0)
(1.00008 -0.000119553 0)
(1.00015 0.000173466 0)
(1.00045 0.000519196 0)
(1.00103 0.000335999 0)
(1.001 0.000216327 0)
(1.00081 0.000707661 0)
(1.0008 0.0010568 0)
(1.00098 0.00136508 0)
(1.00127 0.00165529 0)
(1.00175 0.00181258 0)
(1.00203 0.00181647 0)
(1.00205 0.00200776 0)
(1.00216 0.00224375 0)
(1.00255 0.00233587 0)
(1.0029 0.00236632 0)
(1.00305 0.00250475 0)
(1.0031 0.00273926 0)
(1.00319 0.00299568 0)
(1.00331 0.00310717 0)
(1.00004 6.50487e-05 0)
(1.00008 -7.90207e-05 0)
(1.00019 0.000166725 0)
(1.00045 0.000511499 0)
(1.00099 0.00041585 0)
(1.00103 0.000276475 0)
(1.00091 0.00070429 0)
(1.00088 0.00107794 0)
(1.00105 0.00139072 0)
(1.00132 0.00162961 0)
(1.00177 0.00177563 0)
(1.00206 0.00180382 0)
(1.00212 0.00197682 0)
(1.00223 0.00220623 0)
(1.00257 0.00233352 0)
(1.00293 0.00237229 0)
(1.00314 0.00248963 0)
(1.00324 0.00267039 0)
(1.00331 0.00289754 0)
(1.00339 0.00302291 0)
(1.00004 5.72888e-05 0)
(1.00007 -3.73216e-05 0)
(1.00023 0.000166336 0)
(1.00046 0.000495235 0)
(1.00095 0.000489743 0)
(1.00105 0.000352141 0)
(1.001 0.000705627 0)
(1.00097 0.00107514 0)
(1.00112 0.0014033 0)
(1.00137 0.00162127 0)
(1.00178 0.00175213 0)
(1.00208 0.00178737 0)
(1.0022 0.00194444 0)
(1.00231 0.00216144 0)
(1.00261 0.00231402 0)
(1.00297 0.00236822 0)
(1.00322 0.00246469 0)
(1.00335 0.00260956 0)
(1.00343 0.00279563 0)
(1.00346 0.00292802 0)
(1.00004 5.03497e-05 0)
(1.00007 1.99534e-06 0)
(1.00027 0.000175626 0)
(1.00048 0.000474334 0)
(1.00092 0.000551686 0)
(1.00106 0.000438757 0)
(1.00108 0.00071782 0)
(1.00106 0.00106188 0)
(1.00119 0.0014025 0)
(1.00141 0.00161369 0)
(1.00179 0.00174339 0)
(1.0021 0.0017758 0)
(1.00226 0.00190993 0)
(1.00239 0.00211105 0)
(1.00266 0.00227655 0)
(1.003 0.00235084 0)
(1.00328 0.00243298 0)
(1.00345 0.00254766 0)
(1.00353 0.00270021 0)
(1.00354 0.00282033 0)
(1.00004 4.53718e-05 0)
(1.00006 3.62024e-05 0)
(1.00029 0.000194315 0)
(1.0005 0.000455599 0)
(1.0009 0.000598434 0)
(1.00107 0.000526569 0)
(1.00115 0.000744351 0)
(1.00115 0.00104571 0)
(1.00127 0.00138856 0)
(1.00145 0.00160296 0)
(1.0018 0.00173857 0)
(1.00212 0.0017745 0)
(1.00232 0.00188187 0)
(1.00247 0.00205593 0)
(1.00272 0.00222469 0)
(1.00304 0.00231276 0)
(1.00333 0.00239462 0)
(1.00353 0.00248073 0)
(1.00362 0.00260984 0)
(1.00362 0.00270698 0)
(1.00004 4.2623e-05 0)
(1.00006 6.44732e-05 0)
(1.00031 0.000219916 0)
(1.00052 0.000442691 0)
(1.0009 0.000630541 0)
(1.00107 0.000607971 0)
(1.0012 0.000788636 0)
(1.00124 0.00103591 0)
(1.00135 0.00136315 0)
(1.0015 0.00158819 0)
(1.00181 0.00172966 0)
(1.00213 0.00177342 0)
(1.00237 0.00186295 0)
(1.00254 0.00200299 0)
(1.00278 0.00216485 0)
(1.00308 0.00225806 0)
(1.00337 0.00234422 0)
(1.00359 0.00241198 0)
(1.0037 0.00251836 0)
(1.00369 0.00259827 0)
(1.00004 4.22545e-05 0)
(1.00005 8.68268e-05 0)
(1.00032 0.00024989 0)
(1.00054 0.000439034 0)
(1.0009 0.000650626 0)
(1.00107 0.000677049 0)
(1.00124 0.000841143 0)
(1.00131 0.00103925 0)
(1.00143 0.00133528 0)
(1.00155 0.00156552 0)
(1.00183 0.00172081 0)
(1.00213 0.00177016 0)