/*--------------------------------*- C++ -*----------------------------------*\
| =========                 |                                                 |
| \\      /  F ield         | OpenFOAM: The Open Source CFD Toolbox           |
|  \\    /   O peration     | Version:  3.0.1                                 |
|   \\  /    A nd           | Web:      www.OpenFOAM.org                      |
|    \\/     M anipulation  |                                                 |
\*---------------------------------------------------------------------------*/
FoamFile
{
    version     2.0;
    format      ascii;
    class       volScalarField;
    location    "2.9";
    object      p;
}
// * * * * * * * * * * * * * * * * * * * * * * * * * * * * * * * * * * * * * //

dimensions      [0 2 -2 0 0 0 0];

internalField   nonuniform List<scalar> 
9600
(
-8.41802e-12
0.000126893
-0.000183623
-0.00176082
-0.000349752
0.00253994
0.000339611
-0.000943332
0.00134128
0.00182625
0.0015497
0.00335209
0.00418474
0.00505372
0.00594061
0.0066128
0.00863818
0.0100265
0.0122525
0.0171492
2.15312e-06
0.000113923
-0.000183621
-0.00174035
-0.000348856
0.00249704
0.000338795
-0.000940433
0.00134003
0.0018399
0.00155082
0.00334773
0.00419381
0.00503417
0.00594158
0.00657268
0.00863358
0.009908
0.012277
0.0164576
3.57379e-06
0.000101109
-0.00018018
-0.00172027
-0.00035757
0.00244393
0.000339571
-0.000931363
0.00134231
0.00185033
0.00155049
0.00333928
0.00420429
0.00500175
0.00593335
0.00652322
0.00861861
0.00981705
0.0122696
0.015774
4.53351e-06
9.19656e-05
-0.000176381
-0.00170413
-0.000364919
0.00239288
0.000336741
-0.000912311
0.001347
0.00185464
0.00155137
0.0033257
0.00421543
0.00496116
0.00592163
0.00647513
0.00860226
0.00973529
0.0122142
0.0152155
5.66744e-06
8.63467e-05
-0.000173444
-0.00168962
-0.000365126
0.00234309
0.000330877
-0.000882931
0.00135285
0.00185464
0.00155342
0.00330808
0.00422906
0.004917
0.00591358
0.00642492
0.00858881
0.00964669
0.0121311
0.0147682
7.17866e-06
8.44534e-05
-0.000171739
-0.0016747
-0.000357487
0.00229384
0.000324013
-0.000844808
0.00135978
0.00185203
0.00155586
0.00328904
0.00424448
0.00487201
0.00590778
0.0063722
0.00857573
0.0095535
0.0120221
0.0142902
9.13837e-06
8.59256e-05
-0.000171407
-0.00165784
-0.000342521
0.00224563
0.00031804
-0.000799889
0.00136819
0.00184796
0.00155836
0.00326999
0.00426054
0.00482658
0.0059024
0.00631809
0.00855849
0.00946144
0.0118803
0.0138365
1.15651e-05
8.98572e-05
-0.000172188
-0.00163793
-0.000321299
0.00219834
0.000313978
-0.000750096
0.00137846
0.00184323
0.0015607
0.00325134
0.00427696
0.00478036
0.00589661
0.00626306
0.00853431
0.00937262
0.0117028
0.0134058
1.44476e-05
9.5286e-05
-0.00017354
-0.00161465
-0.000295799
0.00215137
0.000312016
-0.000697158
0.0013907
0.00183827
0.00156277
0.00323333
0.00429374
0.0047328
0.00588907
0.00620845
0.00850087
0.00928783
0.0114896
0.0129945
1.77791e-05
0.000101472
-0.000174958
-0.0015885
-0.000268086
0.00210417
0.000311791
-0.000642519
0.00140476
0.00183334
0.0015644
0.00321592
0.00431068
0.00468357
0.00587827
0.00615615
0.00845558
0.00920727
0.0112424
0.0125973
2.15758e-05
0.000107911
-0.000176133
-0.0015603
-0.000239561
0.00205638
0.00031282
-0.000587299
0.00142032
0.00182863
0.00156526
0.00319901
0.00432758
0.00463287
0.00586276
0.00610768
0.00839594
0.00913009
0.0109645
0.0122079
2.587e-05
0.000114263
-0.000176925
-0.00153073
-0.000210933
0.00200782
0.00031475
-0.000532309
0.00143705
0.00182436
0.00156501
0.00318251
0.004344
0.00458138
0.00584117
0.00606373
0.00831996
0.00905463
0.0106609
0.0118192
3.06969e-05
0.000120306
-0.00017727
-0.00150021
-0.000182469
0.00195839
0.000317369
-0.000478063
0.00145463
0.00182076
0.0015633
0.00316632
0.00435925
0.00453008
0.00581217
0.00602428
0.00822656
0.00897803
0.0103376
0.0114254
3.60925e-05
0.000125891
-0.00017712
-0.00146893
-0.000154262
0.00190808
0.000320626
-0.000424838
0.00147278
0.00181818
0.00155974
0.00315034
0.00437276
0.00447993
0.00577436
0.00598904
0.00811573
0.00889598
0.0100016
0.0110231
4.20947e-05
0.000130916
-0.000176424
-0.00143694
-0.000126357
0.001857
0.000324561
-0.000372742
0.00149116
0.00181702
0.00155394
0.00313446
0.00438406
0.00443146
0.00572682
0.00595705
0.00798856
0.00880422
0.0096594
0.0106108
4.87436e-05
0.000135302
-0.00017514
-0.00140423
-9.87923e-05
0.0018053
0.000329206
-0.000321745
0.00150941
0.0018177
0.00154562
0.00311865
0.00439262
0.00438495
0.00566934
0.00592639
0.0078471
0.00869929
0.00931625
0.0101886
5.60772e-05
0.000138988
-0.000173228
-0.00137077
-7.16359e-05
0.00175316
0.000334561
-0.000271729
0.00152713
0.00182059
0.00153457
0.00310277
0.0043981
0.00434033
0.00560207
0.00589483
0.00769349
0.0085783
0.00897612
0.00975748
6.41251e-05
0.000141924
-0.000170658
-0.00133648
-4.50023e-05
0.00170079
0.000340561
-0.000222523
0.00154387
0.00182599
0.00152066
0.00308658
0.00440048
0.00429702
0.00552559
0.00586012
0.00752914
0.0084396
0.00864198
0.00931909
7.29159e-05
0.000144076
-0.000167424
-0.0013013
-1.90606e-05
0.00164845
0.000347076
-0.000173984
0.00155926
0.00183416
0.00150388
0.00306955
0.00440007
0.00425412
0.00544069
0.00582045
0.00735512
0.00828284
0.00831573
0.00887507
8.24777e-05
0.00014544
-0.000163555
-0.00126512
5.97394e-06
0.00159644
0.000353951
-0.000126025
0.00157291
0.00184525
0.00148458
0.00305086
0.00439724
0.00421042
0.00534808
0.00577464
0.00717215
0.00810829
0.00799873
0.00842727
9.28118e-05
0.000146037
-0.000159093
-0.00122781
2.98522e-05
0.00154505
0.000361017
-7.85398e-05
0.00158436
0.00185926
0.00146331
0.00302957
0.00439253
0.0041648
0.00524808
0.00572209
0.00698047
0.00791603
0.00769252
0.00797837
0.000103894
0.000145934
-0.000154111
-0.00118922
5.2297e-05
0.00149457
0.000368063
-3.14049e-05
0.00159336
0.00187582
0.00144059
0.00300456
0.00438687
0.00411664
0.00514015
0.00566315
0.00678061
0.00770507
0.00739845
0.00753212
0.000115682
0.000145257
-0.000148718
-0.00114918
7.30334e-05
0.00144528
0.000374863
1.53874e-05
0.0015999
0.00189445
0.00141742
0.00297431
0.00438066
0.00406584
0.00502333
0.00559872
0.00657356
0.00747359
0.00711708
0.00709319
0.000128098
0.00014418
-0.00014304
-0.00110756
9.1823e-05
0.00139746
0.000381298
6.16797e-05
0.001604
0.00191448
0.00139507
0.00293751
0.00437366
0.00401277
0.00489643
0.00552876
0.00636123
0.00722041
0.00684772
0.00666674
0.000141036
0.000142941
-0.00013724
-0.00106423
0.00010841
0.00135139
0.000387408
0.000107184
0.00160578
0.00193485
0.00137451
0.00289359
0.00436529
0.00395829
0.00475816
0.0054521
0.006147
0.00694544
0.00658815
0.00625868
0.000154363
0.000141852
-0.000131497
-0.00101909
0.000122559
0.00130712
0.000393276
0.000151557
0.00160575
0.00195452
0.00135634
0.0028422
0.00435443
0.00390342
0.0046075
0.00536703
0.0059352
0.00664935
0.00633431
0.00587623
0.000167912
0.000141274
-0.000125974
-0.000972106
0.000134136
0.00126463
0.00039919
0.000194091
0.00160436
0.00197298
0.00134097
0.0027833
0.00433969
0.00384935
0.0044438
0.00527094
0.0057301
0.00633405
0.00607998
0.00552708
0.000181474
0.000141594
-0.000120795
-0.000923297
0.000143049
0.00122395
0.000405678
0.000233836
0.0016017
0.00198977
0.00132875
0.00271701
0.00431919
0.00379707
0.00426702
0.00516061
0.00553555
0.00600392
0.00581663
0.0052167
0.00019481
0.000143251
-0.000116056
-0.0008728
0.000149384
0.00118478
0.000413364
0.000270262
0.00159771
0.00200442
0.00131963
0.00264358
0.00429093
0.00374718
0.00407815
0.00503283
0.00535416
0.00566634
0.00553439
0.00494382
0.000207665
0.000146707
-0.000111818
-0.000820892
0.00015346
0.00114653
0.000423171
0.000303037
0.00159187
0.00201701
0.00131305
0.0025632
0.00425326
0.00370028
0.00387928
0.0048841
0.00518588
0.00533105
0.00522556
0.00469744
0.000219763
0.000152379
-0.000107999
-0.000767929
0.00015568
0.00110849
0.000435957
0.00033186
0.00158307
0.00202771
0.00130883
0.00247596
0.00420447
0.00365671
0.00367294
0.0047113
0.00502792
0.00500879
0.0048894
0.00445991
0.000230831
0.000160691
-0.000104474
-0.000714402
0.000156716
0.0010697
0.000452098
0.000357248
0.00157007
0.00203615
0.0013071
0.00238234
0.00414272
0.00361614
0.00346212
0.00451276
0.00487568
0.00470875
0.0045337
0.00421109
0.000240585
0.000172029
-0.000101013
-0.000661204
0.000157766
0.00102949
0.000471436
0.000380706
0.00155162
0.00204122
0.00130779
0.00228279
0.00406606
0.00357803
0.00325062
0.00428824
0.00472314
0.0044357
0.00417107
0.00393641
0.000248784
0.000186628
-9.70776e-05
-0.000609421
0.000160047
0.000987522
0.000493075
0.000403993
0.0015271
0.0020415
0.00131073
0.00217785
0.00397255
0.0035416
0.00304251
0.00403843
0.00456445
0.00418989
0.00381345
0.00363296
0.000255227
0.000204488
-9.17507e-05
-0.000560113
0.000164201
0.00094392
0.00051549
0.000428336
0.00149649
0.00203556
0.00131559
0.00206843
0.0038604
0.00350521
0.00284225
0.00376504
0.00439478
0.00397003
0.00346935
0.00330671
0.00025978
0.00022529
-8.3795e-05
-0.000514229
0.000170595
0.000899669
0.000536759
0.000454218
0.00146033
0.0020217
0.00132162
0.00195561
0.00372829
0.00346678
0.00265485
0.00347066
0.00420895
0.00377517
0.00314468
0.00296579
0.000262419
0.000248267
-7.17715e-05
-0.000472051
0.000178978
0.000856014
0.000555342
0.000481486
0.00141936
0.00199815
0.0013275
0.00184115
0.00357615
0.00342354
0.00248514
0.00315943
0.00400046
0.00360345
0.00284546
0.00261671
0.000263201
0.000272278
-5.41515e-05
-0.000432751
0.000187394
0.000813697
0.000570541
0.000509273
0.0013742
0.00196373
0.00133206
0.00172713
0.00340475
0.00337187
0.00233713
0.00283811
0.00376217
0.00344957
0.00257938
0.00226564
0.000262341
0.000296238
-2.99976e-05
-0.000395068
0.000194081
0.000772888
0.00058152
0.000536135
0.00132597
0.00191852
0.00133478
0.00161491
0.00321552
0.00330737
0.00221224
0.00251554
0.00348885
0.00330304
0.00235361
0.00192196
0.000260094
0.00031938
8.70607e-07
-0.000357703
0.000198568
0.000733132
0.000586827
0.000560588
0.00127667
0.00186349
0.00133442
0.00149499
0.00301116
0.00322556
0.00210874
0.00220115
0.00318
0.00314946
0.00217041
0.00159949
0.00025695
0.000340794
3.80894e-05
-0.000319202
0.000200609
0.000693684
0.000585066
0.000581439
0.00122786
0.00180011
0.00133014
0.00139207
0.00279537
0.00312293
0.0020226
0.00190305
0.00284019
0.0029744
0.00202431
0.00131312
0.000254156
0.000359731
8.02967e-05
-0.000278321
0.000200148
0.000654585
0.000575343
0.000596046
0.00117953
0.00173141
0.00132076
0.00129608
0.00257163
0.00299753
0.00194889
0.00162793
0.00247743
0.00276711
0.00190317
0.00107381
0.000252525
0.000375978
0.000125449
-0.000234189
0.000197359
0.000616518
0.000558288
0.00059758
0.00112924
0.00166116
0.00130848
0.00120692
0.00234341
0.00284855
0.00188208
0.00138184
0.00210194
0.00252221
0.00179165
0.000885148
0.000252424
0.000389496
0.000172372
-0.000186348
0.000192449
0.00057863
0.000535237
0.000582089
0.00107531
0.00159067
0.00129287
0.00112438
0.00211426
0.00267578
0.00181539
0.00116866
0.00172492
0.00223863
0.00167421
0.000742432
0.000254813
0.000400273
0.000219607
-0.000135597
0.000188596
0.000538569
0.000504965
0.000554199
0.00101973
0.00151834
0.0012725
0.0010483
0.00188734
0.00248002
0.00174109
0.000988493
0.00135875
0.00191922
0.00153631
0.000634419
0.000260307
0.000408342
0.000264575
-8.39546e-05
0.000173216
0.000497437
0.000476988
0.00052888
0.00096007
0.00143989
0.00124411
0.000977346
0.00166461
0.00226324
0.00165175
0.000837012
0.00101587
0.00157266
0.00136678
0.000546094
0.000269083
0.000414209
0.000304572
-3.27338e-05
0.000158875
0.000456788
0.000452938
0.000501818
0.000893589
0.00135669
0.00120723
0.000910487
0.00144866
0.00202964
0.00154263
0.000706968
0.000704764
0.00121186
0.00116023
0.000460486
0.000281128
0.000418204
0.000338317
1.78958e-05
0.000146328
0.000414658
0.000429503
0.000473713
0.000822367
0.0012606
0.00115901
0.000846308
0.00124349
0.00178523
0.00141218
0.000590489
0.000428462
0.000849793
0.000918368
0.00036317
0.000296135
0.000420953
0.00036559
6.69945e-05
0.000134252
0.000369836
0.000405121
0.00044641
0.000748862
0.00115569
0.00109769
0.000782107
0.00105099
0.00153622
0.00126079
0.000479523
0.000186256
0.000498
0.00064709
0.000243699
0.000314
0.000423386
0.000385802
0.000112547
0.000124535
0.000322988
0.000377901
0.000419306
0.000674957
0.00104434
0.00102374
0.000716198
0.000870166
0.00128598
0.00108982
0.000366924
-2.4545e-05
0.000166753
0.000355049
9.63578e-05
0.000334234
0.000426239
0.000398654
0.000152985
0.000117606
0.000274681
0.000345814
0.000391507
0.000602839
0.000928666
0.000936417
0.000645306
0.000700332
0.00103797
0.000902806
0.000248593
-0.000208585
-0.000136425
5.28151e-05
-8.00248e-05
0.000356273
0.000430117
0.0004043
0.000186716
0.000113814
0.000226565
0.000307792
0.000361377
0.000533023
0.000810448
0.000835769
0.000567187
0.000542311
0.000797404
0.000703372
0.000120855
-0.000374354
-0.000410306
-0.000249443
-0.000283272
0.000379296
0.000434934
0.000403551
0.000213119
0.000113737
0.000180271
0.000262868
0.000326031
0.000465162
0.000693874
0.000725861
0.000480749
0.000392893
0.000565523
0.000493911
-1.85492e-05
-0.000528892
-0.000656
-0.000540631
-0.000506091
0.000401928
0.000440309
0.000398755
0.000231808
0.000119649
0.000137291
0.000211307
0.000282969
0.000398392
0.000580618
0.000609884
0.000386109
0.000248036
0.00034212
0.000278878
-0.000168355
-0.000675325
-0.000874914
-0.000812737
-0.000739804
0.000423012
0.000446457
0.000391675
0.00024224
0.000121712
9.84309e-05
0.000154795
0.000231004
0.000329978
0.000470221
0.000489354
0.00028425
0.000108807
0.000129186
6.1837e-05
-0.000327988
-0.000818151
-0.001072
-0.00106394
-0.000976407
0.000441834
0.000452857
0.000383776
0.000244509
0.000120514
6.36618e-05
9.61763e-05
0.000170317
0.000256929
0.000362283
0.000366725
0.00017585
-2.4787e-05
-7.16321e-05
-0.000155484
-0.000497147
-0.000961196
-0.00125215
-0.00129349
-0.00120713
0.000458066
0.000458956
0.000375601
0.000239394
0.000114217
3.21528e-05
3.80059e-05
0.000102019
0.000177309
0.000255719
0.000244712
6.20739e-05
-0.000156176
-0.000260052
-0.000369082
-0.000673561
-0.0011055
-0.00141878
-0.00150184
-0.00142562
0.000471512
0.000464274
0.000367218
0.000228162
0.000101583
2.05758e-06
-1.8443e-05
2.8748e-05
9.14342e-05
0.000147634
0.000122779
-5.42329e-05
-0.000285899
-0.00043685
-0.000574499
-0.000854352
-0.00125227
-0.00157559
-0.00169264
-0.00162978
0.00048197
0.000467981
0.0003585
0.000212121
8.20352e-05
-2.89942e-05
-7.30725e-05
-4.66161e-05
9.15805e-07
3.70776e-05
-6.49757e-07
-0.000172558
-0.000411958
-0.00060256
-0.000770093
-0.00103633
-0.00140279
-0.00172553
-0.00186922
-0.00181963
0.000489279
0.000468382
0.000348824
0.00019247
5.57969e-05
-6.3299e-05
-0.000126482
-0.000122316
-9.29592e-05
-7.47857e-05
-0.000124995
-0.000294032
-0.000535474
-0.000757002
-0.000955159
-0.00121587
-0.00155577
-0.00187006
-0.00203252
-0.00199601
0.000493292
0.00046576
0.000337382
0.000169487
2.34937e-05
-0.000102358
-0.000179804
-0.000197215
-0.000188477
-0.000187696
-0.000248528
-0.000417301
-0.000659176
-0.000901341
-0.0011277
-0.00138991
-0.00170854
-0.00201051
-0.00218371
-0.00216012
0.000493775
0.000459732
0.000323495
0.000144495
-1.37687e-05
-0.000146591
-0.000234832
-0.000271269
-0.000283261
-0.000301058
-0.000371793
-0.00053965
-0.000782319
-0.00103809
-0.00128617
-0.00155546
-0.00185924
-0.00214803
-0.00232542
-0.00231262
0.000490405
0.000450016
0.000307062
0.000116814
-5.48444e-05
-0.000195661
-0.000293064
-0.000345509
-0.000376027
-0.000412192
-0.000494543
-0.000661057
-0.000901989
-0.00116824
-0.00143187
-0.00170942
-0.0020055
-0.00228215
-0.00245953
-0.00245394
0.00048284
0.00043631
0.00028602
8.60645e-05
-9.88874e-05
-0.000249093
-0.000354932
-0.000420736
-0.000467652
-0.00051945
-0.000613502
-0.000781315
-0.00101774
-0.00129003
-0.00156628
-0.00185035
-0.0021433
-0.00241062
-0.00258582
-0.00258516
0.000470664
0.000418285
0.000260768
5.17003e-05
-0.000145769
-0.00030633
-0.000420358
-0.000497079
-0.000558266
-0.000623843
-0.000726921
-0.000897076
-0.00112987
-0.00140228
-0.00168763
-0.00197778
-0.00226901
-0.00253021
-0.00270263
-0.00270572
0.000453379
0.000395625
0.000231062
1.33036e-05
-0.000195813
-0.000366885
-0.000489239
-0.000574909
-0.000647209
-0.000724803
-0.000835094
-0.00100547
-0.00123576
-0.00150549
-0.0017942
-0.00209031
-0.00238107
-0.00263854
-0.0028085
-0.00281507
0.000430598
0.00036786
0.000196694
-2.94949e-05
-0.000249452
-0.000430485
-0.000561018
-0.000654628
-0.000734961
-0.000821091
-0.000937421
-0.00110617
-0.00133173
-0.0015984
-0.00188603
-0.00218532
-0.00247728
-0.00273269
-0.00290188
-0.00291171
0.000402015
0.000334759
0.00015718
-7.6983e-05
-0.000307006
-0.000497278
-0.000635383
-0.00073588
-0.000822314
-0.000913084
-0.00103236
-0.00119875
-0.00141615
-0.00167734
-0.00196227
-0.00226039
-0.00255364
-0.00280877
-0.0029788
-0.00299255
0.000367088
0.000295871
0.000112376
-0.000129403
-0.000368586
-0.000567546
-0.000712751
-0.000818764
-0.000909354
-0.00100208
-0.00111995
-0.00128136
-0.0014878
-0.00173768
-0.00201752
-0.00231191
-0.00260468
-0.00286161
-0.0030345
-0.00305418
0.000325435
0.000250784
6.18846e-05
-0.000187008
-0.00043452
-0.000641694
-0.000793348
-0.000903757
-0.00099662
-0.00108894
-0.00120205
-0.00135381
-0.00154552
-0.00177673
-0.0020423
-0.00232954
-0.0026197
-0.00288037
-0.00306093
-0.00309224
0.000276537
0.000199435
5.07957e-06
-0.000249746
-0.000505086
-0.000720267
-0.000878232
-0.000991793
-0.00108503
-0.00117436
-0.00127934
-0.00141713
-0.00158864
-0.00179397
-0.00203244
-0.00230003
-0.0025788
-0.0028403
-0.00303483
-0.00308944
0.000219333
0.000139594
-5.68647e-05
-0.000316984
-0.000580513
-0.000803261
-0.00096825
-0.00108566
-0.00117749
-0.00126003
-0.00135195
-0.00147001
-0.00161488
-0.00178758
-0.00198899
-0.00221867
-0.00246738
-0.00271056
-0.00290544
-0.00298393
0.000153866
7.31774e-05
-0.000125426
-0.000390779
-0.000661075
-0.000890897
-0.00106379
-0.00118866
-0.0012826
-0.0013539
-0.00142293
-0.00150973
-0.00161605
-0.0017491
-0.001912
-0.00210348
-0.00231698
-0.00252301
-0.00268467
-0.00273924
8.20774e-05
8.98371e-07
-0.000202934
-0.000472502
-0.000745262
-0.000981002
-0.00116469
-0.00130261
-0.00141182
-0.00148867
-0.00152698
-0.00153869
-0.00152657
-0.00152268
-0.00156983
-0.00169909
-0.0019292
-0.00223435
-0.00255529
-0.00279691
-1.17731e-07
-8.44127e-05
-0.000289198
-0.000555833
-0.000825974
-0.0010659
-0.00126352
-0.0014223
-0.00155673
-0.00168109
-0.00180534
-0.00190911
-0.00188694
-0.00167661
-0.00138937
-0.00114002
-0.000952721
-0.000803691
-0.000686635
-0.000647658
-9.70933e-05
-0.000183919
-0.000385132
-0.000643617
-0.000902423
-0.00113639
-0.00134046
-0.00152171
-0.00167975
-0.0017545
-0.00166706
-0.00147214
-0.00126991
-0.0011315
-0.00107368
-0.00107379
-0.00110778
-0.00115601
-0.00121924
-0.00133038
-0.00020997
-0.000279585
-0.000479498
-0.000743019
-0.00102186
-0.00128485
-0.0014856
-0.00156393
-0.00152774
-0.00145752
-0.00141154
-0.00141096
-0.00141696
-0.00140265
-0.00134456
-0.00121649
-0.00103385
-0.000826363
-0.000650011
-0.000571965
-0.000371023
-0.000427063
-0.000539562
-0.000706743
-0.000904699
-0.00109834
-0.00125732
-0.00135566
-0.00140785
-0.00142582
-0.00140372
-0.00137997
-0.00136162
-0.00136122
-0.00143658
-0.00160531
-0.00187281
-0.00222648
-0.00264146
-0.00295583
-0.000531289
-0.000602446
-0.000658899
-0.000753001
-0.000900683
-0.00108012
-0.00125889
-0.00139024
-0.00146573
-0.00151098
-0.00150811
-0.00147556
-0.00144519
-0.00137657
-0.00126803
-0.00112593
-0.000952026
-0.000771229
-0.000615572
-0.000653155
-0.000617853
-0.000687243
-0.000754915
-0.00083772
-0.000945385
-0.00106719
-0.00117777
-0.00126375
-0.00131522
-0.0013581
-0.00138487
-0.0013809
-0.00138276
-0.00138335
-0.00137201
-0.00136045
-0.00134905
-0.00135536
-0.00140596
-0.00156688
0.0196414
0.01316
0.00418464
-0.00193145
-0.0037905
-0.00331404
-0.00239501
-0.00181444
-0.00176327
-0.0021034
-0.00252257
-0.00276784
-0.00281698
-0.00282298
-0.00290386
-0.00307215
-0.00330669
-0.00350303
-0.00352411
-0.00342956
-0.00340174
-0.00348705
-0.00360965
-0.00369941
-0.00373606
-0.0037758
-0.00388927
-0.00405685
-0.00420506
-0.00431865
-0.00443931
-0.00457294
-0.00467383
-0.00472228
-0.00476413
-0.00483981
-0.00492488
-0.00498556
-0.00504669
-0.00515062
-0.005283
-0.00540129
-0.00551055
-0.00563611
-0.0057582
-0.00584676
-0.00592562
-0.00602173
-0.00611775
-0.00619421
-0.00627993
-0.00639843
-0.0065132
-0.00661208
-0.00673042
-0.00684849
-0.0069462
-0.00704838
-0.00715484
-0.00725582
-0.00736743
-0.0074866
-0.00760324
-0.00771991
-0.00783359
-0.00794089
-0.00805179
-0.00817079
-0.00829363
-0.00841724
-0.00853729
-0.00865282
-0.00876913
-0.00888993
-0.00901461
-0.00914174
-0.00926835
-0.0093925
-0.00951668
-0.00964307
-0.00977424
-0.00990577
-0.0100387
-0.0101717
-0.0103076
-0.0104424
-0.0105818
-0.0107203
-0.0108653
-0.0110078
-0.0111554
-0.0113008
-0.0114545
-0.0116041
-0.0117643
-0.01192
-0.0120843
-0.0122636
-0.0123745
-0.0125164
0.0187042
0.0130312
0.00428395
-0.0018094
-0.0037176
-0.00327526
-0.00236823
-0.0017945
-0.00174852
-0.0020925
-0.00251449
-0.00276164
-0.00281182
-0.00281827
-0.0028994
-0.00306794
-0.00330294
-0.00349994
-0.00352143
-0.00342688
-0.00339909
-0.00348464
-0.00360754
-0.00369759
-0.00373439
-0.00377414
-0.00388767
-0.00405541
-0.00420377
-0.00431741
-0.0044381
-0.00457182
-0.00467282
-0.00472131
-0.00476317
-0.00483889
-0.00492405
-0.00498478
-0.00504591
-0.00514985
-0.00528229
-0.00540063
-0.00550991
-0.0056355
-0.00575763
-0.00584624
-0.00592511
-0.00602123
-0.00611729
-0.00619377
-0.00627949
-0.00639801
-0.00651282
-0.0066117
-0.00673005
-0.00684816
-0.00694588
-0.00704806
-0.00715454
-0.00725553
-0.00736715
-0.00748633
-0.00760299
-0.00771966
-0.00783335
-0.00794066
-0.00805157
-0.00817058
-0.00829342
-0.00841704
-0.0085371
-0.00865264
-0.00876895
-0.00888976
-0.00901444
-0.00914158
-0.0092682
-0.00939235
-0.00951654
-0.00964293
-0.00977411
-0.00990565
-0.0100386
-0.0101716
-0.0103075
-0.0104423
-0.0105817
-0.0107202
-0.0108652
-0.0110077
-0.0111553
-0.0113007
-0.0114544
-0.0116041
-0.0117642
-0.01192
-0.0120843
-0.0122635
-0.0123745
-0.0125163
0.0179032
0.0129667
0.0045161
-0.00156553
-0.00359292
-0.00322917
-0.00234521
-0.0017756
-0.00173209
-0.0020787
-0.002503
-0.00275244
-0.00280485
-0.00281312
-0.00289536
-0.00306431
-0.00329952
-0.00349696
-0.00351879
-0.00342434
-0.00339665
-0.00348239
-0.00360552
-0.00369581
-0.00373277
-0.00377258
-0.00388622
-0.00405414
-0.00420263
-0.00431631
-0.00443705
-0.00457088
-0.00467196
-0.00472045
-0.0047623
-0.00483808
-0.00492332
-0.00498408
-0.0050452
-0.00514916
-0.00528168
-0.00540006
-0.00550935
-0.00563497
-0.00575716
-0.00584578
-0.00592465
-0.0060208
-0.0061169
-0.00619338
-0.00627909
-0.00639765
-0.00651249
-0.00661137
-0.00672974
-0.00684787
-0.00694559
-0.00704778
-0.00715428
-0.00725527
-0.0073669
-0.0074861
-0.00760277
-0.00771945
-0.00783315
-0.00794047
-0.00805138
-0.00817039
-0.00829325
-0.00841687
-0.00853694
-0.00865248
-0.0087688
-0.00888962
-0.0090143
-0.00914145
-0.00926807
-0.00939222
-0.00951642
-0.00964281
-0.00977399
-0.00990554
-0.0100385
-0.0101715
-0.0103074
-0.0104422
-0.0105816
-0.0107201
-0.0108651
-0.0110076
-0.0111552
-0.0113006
-0.0114543
-0.011604
-0.0117642
-0.0119199
-0.0120842
-0.0122635
-0.0123745
-0.0125162
0.0171614
0.0128937
0.00479791
-0.00125885
-0.00342719
-0.00317058
-0.00231701
-0.00175076
-0.00171016
-0.00206018
-0.0024861
-0.0027371
-0.00279266
-0.00280491
-0.00289019
-0.00306024
-0.00329526
-0.00349264
-0.00351509
-0.00342148
-0.00339423
-0.0034799
-0.00360291
-0.00369342
-0.00373074
-0.00377077
-0.00388453
-0.00405263
-0.00420131
-0.00431514
-0.00443599
-0.00456991
-0.00467104
-0.00471953
-0.00476137
-0.00483721
-0.00492253
-0.00498332
-0.00504443
-0.00514843
-0.00528102
-0.00539946
-0.00550877
-0.00563443
-0.00575667
-0.0058453
-0.00592416
-0.00602035
-0.00611648
-0.00619297
-0.00627867
-0.00639727
-0.00651215
-0.00661102
-0.00672941
-0.00684759
-0.0069453
-0.0070475
-0.00715401
-0.00725501
-0.00736665
-0.00748587
-0.00760254
-0.00771924
-0.00783295
-0.00794027
-0.00805118
-0.0081702
-0.00829307
-0.0084167
-0.00853678
-0.00865233
-0.00876865
-0.00888947
-0.00901416
-0.00914131
-0.00926793
-0.0093921
-0.00951629
-0.00964269
-0.00977387
-0.00990543
-0.0100384
-0.0101714
-0.0103073
-0.0104421
-0.0105815
-0.01072
-0.010865
-0.0110076
-0.0111552
-0.0113005
-0.0114542
-0.0116039
-0.0117641
-0.0119198
-0.0120841
-0.0122635
-0.0123744
-0.0125161
0.0164059
0.012763
0.0050789
-0.000933472
-0.00324611
-0.00310705
-0.00228676
-0.00172178
-0.0016834
-0.00203688
-0.00246326
-0.00271468
-0.00277391
-0.00279208
-0.00288257
-0.00305479
-0.00328914
-0.00348572
-0.0035093
-0.00341792
-0.00339187
-0.00347716
-0.00359946
-0.00369005
-0.00372804
-0.00376853
-0.00388232
-0.00405043
-0.00419943
-0.00431368
-0.00443478
-0.00456877
-0.00466995
-0.00471849
-0.00476035
-0.00483619
-0.00492155
-0.0049824
-0.00504354
-0.00514758
-0.00528024
-0.00539876
-0.00550812
-0.00563382
-0.00575609
-0.00584474
-0.00592362
-0.00601984
-0.00611599
-0.00619249
-0.0062782
-0.00639685
-0.00651176
-0.00661063
-0.00672905
-0.00684726
-0.00694498
-0.00704718
-0.00715372
-0.00725472
-0.00736636
-0.00748561
-0.00760229
-0.007719
-0.00783273
-0.00794005
-0.00805096
-0.00817
-0.00829287
-0.00841652
-0.0085366
-0.00865215
-0.00876848
-0.0088893
-0.009014
-0.00914116
-0.00926779
-0.00939196
-0.00951616
-0.00964256
-0.00977375
-0.00990531
-0.0100382
-0.0101713
-0.0103072
-0.010442
-0.0105814
-0.0107199
-0.0108649
-0.0110075
-0.0111551
-0.0113005
-0.0114541
-0.0116038
-0.011764
-0.0119198
-0.0120841
-0.0122634
-0.0123744
-0.012516
0.0156372
0.01257
0.00535315
-0.000594739
-0.00305312
-0.00304006
-0.00225659
-0.00169123
-0.00165377
-0.00201064
-0.00243686
-0.00268771
-0.00275039
-0.0027753
-0.00287223
-0.00304729
-0.00328044
-0.00347545
-0.00350079
-0.00341332
-0.00338954
-0.00347424
-0.00359514
-0.00368566
-0.00372479
-0.00376604
-0.00387954
-0.00404721
-0.00419655
-0.00431162
-0.00443322
-0.00456729
-0.00466854
-0.0047173
-0.00475928
-0.00483504
-0.00492034
-0.00498128
-0.00504249
-0.00514652
-0.00527924
-0.0053979
-0.00550737
-0.00563311
-0.00575539
-0.00584408
-0.005923
-0.00601923
-0.0061154
-0.00619192
-0.00627766
-0.00639635
-0.0065113
-0.00661018
-0.00672863
-0.00684689
-0.0069446
-0.00704682
-0.00715338
-0.00725438
-0.00736603
-0.00748531
-0.00760201
-0.00771874
-0.00783247
-0.0079398
-0.00805072
-0.00816977
-0.00829266
-0.00841632
-0.00853641
-0.00865196
-0.00876829
-0.00888912
-0.00901383
-0.009141
-0.00926764
-0.00939181
-0.00951601
-0.00964241
-0.00977361
-0.00990518
-0.0100381
-0.0101711
-0.010307
-0.0104419
-0.0105813
-0.0107198
-0.0108648
-0.0110074
-0.011155
-0.0113004
-0.011454
-0.0116037
-0.0117639
-0.0119197
-0.012084
-0.0122634
-0.0123744
-0.0125159
0.0148697
0.0123251
0.00562182
-0.000241021
-0.00284648
-0.00296864
-0.00222701
-0.00166022
-0.00162196
-0.00198228
-0.00240865
-0.00265876
-0.0027247
-0.00275643
-0.00286001
-0.00303784
-0.0032691
-0.00346195
-0.00348962
-0.00340752
-0.00338701
-0.00347104
-0.00359003
-0.00368043
-0.00372126
-0.00376369
-0.00387653
-0.00404303
-0.00419248
-0.00430864
-0.00443099
-0.00456516
-0.00466659
-0.00471588
-0.00475819
-0.00483382
-0.00491897
-0.00498002
-0.0050413
-0.0051452
-0.00527788
-0.00539676
-0.00550646
-0.00563223
-0.00575451
-0.00584329
-0.0059223
-0.00601852
-0.00611466
-0.00619122
-0.00627701
-0.00639574
-0.00651073
-0.00660965
-0.00672815
-0.00684643
-0.00694415
-0.00704639
-0.00715297
-0.00725398
-0.00736565
-0.00748496
-0.00760168
-0.00771843
-0.00783218
-0.00793951
-0.00805044
-0.0081695
-0.00829241
-0.00841609
-0.00853619
-0.00865175
-0.00876808
-0.00888892
-0.00901364
-0.00914082
-0.00926747
-0.00939164
-0.00951584
-0.00964225
-0.00977346
-0.00990503
-0.010038
-0.010171
-0.0103069
-0.0104418
-0.0105811
-0.0107197
-0.0108647
-0.0110073
-0.0111549
-0.0113003
-0.0114539
-0.0116036
-0.0117638
-0.0119196
-0.0120839
-0.0122633
-0.0123744
-0.0125158
0.0141171
0.0120338
0.00588047
0.0001258
-0.00262589
-0.00289256
-0.00219861
-0.00162955
-0.0015883
-0.00195192
-0.0023791
-0.00262872
-0.00269796
-0.00273655
-0.00284672
-0.00302702
-0.00325579
-0.00344602
-0.00347635
-0.00340061
-0.00338409
-0.00346748
-0.00358424
-0.00367453
-0.00371762
-0.00376174
-0.0038737
-0.00403837
-0.00418749
-0.00430471
-0.00442785
-0.0045621
-0.00466385
-0.00471405
-0.00475697
-0.00483249
-0.00491747
-0.00497875
-0.00504014
-0.00514369
-0.00527614
-0.00539526
-0.00550529
-0.00563107
-0.00575336
-0.00584235
-0.00592153
-0.0060177
-0.00611377
-0.0061904
-0.00627625
-0.00639498
-0.00651001
-0.00660902
-0.00672758
-0.00684589
-0.00694362
-0.00704588
-0.00715248
-0.00725349
-0.0073652
-0.00748454
-0.00760128
-0.00771806
-0.00783183
-0.00793917
-0.00805011
-0.00816919
-0.00829212
-0.00841582
-0.00853594
-0.0086515
-0.00876783
-0.00888869
-0.00901342
-0.00914062
-0.00926727
-0.00939146
-0.00951566
-0.00964207
-0.00977329
-0.00990487
-0.0100378
-0.0101709
-0.0103068
-0.0104416
-0.010581
-0.0107196
-0.0108645
-0.0110071
-0.0111547
-0.0113001
-0.0114538
-0.0116035
-0.0117637
-0.0119195
-0.0120838
-0.0122632
-0.0123744
-0.0125157
0.013391
0.0116993
0.00611985
0.000501129
-0.00239141
-0.00281076
-0.00217109
-0.00159959
-0.00155297
-0.00191944
-0.00234814
-0.00259769
-0.00267029
-0.00271582
-0.00283267
-0.00301535
-0.00324127
-0.0034285
-0.00346156
-0.00339271
-0.00338069
-0.00346355
-0.00357793
-0.00366812
-0.00371387
-0.00376012
-0.00387126
-0.00403372
-0.00418211
-0.00430013
-0.00442382
-0.00455798
-0.00466019
-0.00471165
-0.00475548
-0.00483095
-0.00491584
-0.00497757
-0.00503917
-0.00514218
-0.0052741
-0.0053934
-0.00550379
-0.00562955
-0.00575181
-0.00584115
-0.00592065
-0.00601678
-0.00611276
-0.00618948
-0.00627538
-0.00639404
-0.00650911
-0.00660824
-0.00672688
-0.00684522
-0.00694299
-0.00704529
-0.00715189
-0.00725291
-0.00736465
-0.00748402
-0.00760081
-0.00771762
-0.0078314
-0.00793875
-0.00804971
-0.00816882
-0.00829178
-0.00841551
-0.00853563
-0.0086512
-0.00876754
-0.00888841
-0.00901316
-0.00914038
-0.00926705
-0.00939124
-0.00951544
-0.00964187
-0.00977309
-0.00990469
-0.0100376
-0.0101707
-0.0103066
-0.0104415
-0.0105809
-0.0107194
-0.0108644
-0.011007
-0.0111546
-0.0113
-0.0114537
-0.0116034
-0.0117636
-0.0119194
-0.0120836
-0.0122631
-0.0123744