/*--------------------------------*- C++ -*----------------------------------*\
| =========                 |                                                 |
| \\      /  F ield         | OpenFOAM: The Open Source CFD Toolbox           |
|  \\    /   O peration     | Version:  3.0.1                                 |
|   \\  /    A nd           | Web:      www.OpenFOAM.org                      |
|    \\/     M anipulation  |                                                 |
\*---------------------------------------------------------------------------*/
FoamFile
{
    version     2.0;
    format      ascii;
    class       surfaceScalarField;
    location    "2.9";
    object      phi;
}
// * * * * * * * * * * * * * * * * * * * * * * * * * * * * * * * * * * * * * //

dimensions      [0 3 -1 0 0 0 0];

internalField   nonuniform List<scalar> 
19000
(
1.18195e-06
2.37219e-07
1.12543e-06
2.18835e-07
1.1492e-06
-6.9258e-07
1.23554e-06
-5.07607e-07
1.21271e-06
5.43481e-07
1.10676e-06
4.93564e-07
1.13201e-06
3.84411e-07
1.12739e-06
-2.88532e-07
1.13554e-06
-6.98982e-07
1.17572e-06
-3.24138e-07
1.1681e-06
-3.46153e-07
1.17112e-06
-9.67152e-08
1.17853e-06
1.37777e-07
1.15508e-06
1.45773e-07
1.15516e-06
5.5013e-07
1.12294e-06
1.77479e-07
1.12903e-06
3.90867e-07
1.10144e-06
5.40203e-08
1.11056e-06
2.29709e-07
-2.87067e-08
1.06006e-06
1.23567e-06
2.25814e-07
1.18318e-06
2.7132e-07
1.20683e-06
-7.16233e-07
1.29152e-06
-5.92291e-07
1.26636e-06
5.68635e-07
1.16879e-06
5.91139e-07
1.18375e-06
3.69454e-07
1.18599e-06
-2.90772e-07
1.19428e-06
-7.07273e-07
1.2327e-06
-3.62559e-07
1.22499e-06
-3.38446e-07
1.2299e-06
-1.01624e-07
1.23224e-06
1.35438e-07
1.21679e-06
1.61227e-07
1.20271e-06
5.64208e-07
1.1874e-06
1.92784e-07
1.17131e-06
4.06964e-07
1.17045e-06
5.48808e-08
1.14992e-06
2.50238e-07
-2.59162e-08
1.14713e-06
1.29034e-06
2.18256e-07
1.24775e-06
3.13914e-07
1.26601e-06
-7.34496e-07
1.34567e-06
-6.71953e-07
1.32232e-06
5.91988e-07
1.24061e-06
6.72851e-07
1.24178e-06
3.6828e-07
1.25256e-06
-3.01554e-07
1.25587e-06
-7.10579e-07
1.29128e-06
-3.9797e-07
1.28396e-06
-3.31125e-07
1.29059e-06
-1.08252e-07
1.28743e-06
1.38597e-07
1.27837e-06
1.70287e-07
1.26059e-06
5.81983e-07
1.25012e-06
2.03262e-07
1.2362e-06
4.20877e-07
1.2342e-06
5.6882e-08
1.22802e-06
2.56419e-07
-1.09461e-08
1.21305e-06
1.3472e-06
2.1516e-07
1.318e-06
3.43118e-07
1.32701e-06
-7.43514e-07
1.39765e-06
-7.42589e-07
1.38081e-06
6.08823e-07
1.31814e-06
7.35526e-07
1.30735e-06
3.79069e-07
1.32281e-06
-3.17012e-07
1.32066e-06
-7.08435e-07
1.34991e-06
-4.27221e-07
1.34582e-06
-3.27034e-07
1.34993e-06
-1.1236e-07
1.34496e-06
1.43568e-07
1.3368e-06
1.78452e-07
1.32415e-06
5.94633e-07
1.31276e-06
2.14642e-07
1.30586e-06
4.27781e-07
1.29971e-06
6.30381e-08
1.30133e-06
2.54794e-07
8.82265e-09
1.28156e-06
1.40756e-06
2.15952e-07
1.39198e-06
3.58696e-07
1.39019e-06
-7.41718e-07
1.44791e-06
-8.00313e-07
1.44215e-06
6.14588e-07
1.39812e-06
7.79556e-07
1.38038e-06
3.96809e-07
1.39444e-06
-3.31072e-07
1.38889e-06
-7.02889e-07
1.41008e-06
-4.48411e-07
1.41048e-06
-3.27435e-07
1.41077e-06
-1.12653e-07
1.40472e-06
1.49617e-07
1.39565e-06
1.87526e-07
1.38862e-06
6.01667e-07
1.37782e-06
2.25441e-07
1.37589e-06
4.2971e-07
1.36797e-06
7.09568e-08
1.37272e-06
2.5004e-07
2.95002e-08
1.35205e-06
1.4727e-06
2.18929e-07
1.46816e-06
3.63239e-07
1.45655e-06
-7.30114e-07
1.49867e-06
-8.42429e-07
1.50593e-06
6.07325e-07
1.47877e-06
8.06723e-07
1.45946e-06
4.16111e-07
1.46804e-06
-3.39646e-07
1.46027e-06
-6.9512e-07
1.47395e-06
-4.62094e-07
1.47699e-06
-3.30472e-07
1.47501e-06
-1.10676e-07
1.4676e-06
1.57031e-07
1.45785e-06
1.97271e-07
1.45522e-06
6.04304e-07
1.44663e-06
2.34032e-07
1.44882e-06
4.27518e-07
1.44019e-06
7.95833e-08
1.44722e-06
2.43014e-07
5.05498e-08
1.42617e-06
1.54319e-06
2.21954e-07
1.54605e-06
3.6038e-07
1.52723e-06
-7.11291e-07
1.55302e-06
-8.6822e-07
1.57162e-06
5.88724e-07
1.55944e-06
8.18905e-07
1.54236e-06
4.33187e-07
1.54462e-06
-3.41904e-07
1.53424e-06
-6.84745e-07
1.54206e-06
-4.69908e-07
1.5452e-06
-3.33617e-07
1.54253e-06
-1.08002e-07
1.53447e-06
1.65091e-07
1.52498e-06
2.06762e-07
1.526e-06
6.03282e-07
1.51997e-06
2.40065e-07
1.52592e-06
4.21566e-07
1.51669e-06
8.88131e-08
1.52564e-06
2.34058e-07
7.18811e-08
1.50431e-06
1.61865e-06
2.23431e-07
1.62581e-06
3.53218e-07
1.60271e-06
-6.88188e-07
1.61366e-06
-8.79168e-07
1.63931e-06
5.63072e-07
1.64e-06
8.18218e-07
1.62712e-06
4.46065e-07
1.62435e-06
-3.39138e-07
1.61075e-06
-6.71144e-07
1.61398e-06
-4.73137e-07
1.61574e-06
-3.35372e-07
1.61307e-06
-1.05334e-07
1.60559e-06
1.72573e-07
1.59754e-06
2.14814e-07
1.60195e-06
5.98871e-07
1.59797e-06
2.44041e-07
1.60715e-06
4.12384e-07
1.59704e-06
9.8924e-08
1.60743e-06
2.23666e-07
9.32e-08
1.58612e-06
1.69817e-06
2.22838e-07
1.70765e-06
3.43736e-07
1.68276e-06
-6.63299e-07
1.68199e-06
-8.78402e-07
1.71e-06
5.35065e-07
1.72079e-06
8.07426e-07
1.71275e-06
4.54103e-07
1.70688e-06
-3.33264e-07
1.69022e-06
-6.54487e-07
1.68958e-06
-4.72491e-07
1.68936e-06
-3.35158e-07
1.6869e-06
-1.02872e-07
1.681e-06
1.78475e-07
1.67535e-06
2.20461e-07
1.68311e-06
5.91109e-07
1.68037e-06
2.46788e-07
1.69206e-06
4.00691e-07
1.6807e-06
1.10278e-07
1.69188e-06
2.12492e-07
1.14008e-07
1.67107e-06
1.781e-06
2.20559e-07
1.79175e-06
3.32992e-07
1.76686e-06
-6.38414e-07
1.75804e-06
-8.69579e-07
1.78493e-06
5.08176e-07
1.80265e-06
7.89704e-07
1.79923e-06
4.5752e-07
1.79189e-06
-3.25918e-07
1.7731e-06
-6.35704e-07
1.76913e-06
-4.68516e-07
1.76679e-06
-3.32819e-07
1.76448e-06
-1.00563e-07
1.76071e-06
1.8225e-07
1.75787e-06
2.23293e-07
1.7689e-06
5.80087e-07
1.76654e-06
2.49143e-07
1.78001e-06
3.87226e-07
1.76722e-06
1.23067e-07
1.77843e-06
2.01285e-07
1.3363e-07
1.7588e-06
1.86699e-06
2.17322e-07
1.87845e-06
3.21528e-07
1.85467e-06
-6.14634e-07
1.84094e-06
-8.55848e-07
1.86489e-06
4.84222e-07
1.88664e-06
7.67956e-07
1.88718e-06
4.56981e-07
1.87943e-06
-3.18167e-07
1.85965e-06
-6.15924e-07
1.85299e-06
-4.61862e-07
1.84865e-06
-3.28471e-07
1.84624e-06
-9.81629e-08
1.84466e-06
1.83837e-07
1.84443e-06
2.23521e-07
1.85841e-06
5.66107e-07
1.85578e-06
2.51773e-07
1.8704e-06
3.72609e-07
1.85634e-06
1.37128e-07
1.86685e-06
1.90773e-07
1.51298e-07
1.84918e-06
1.95642e-06
2.13744e-07
1.96829e-06
3.0965e-07
1.9461e-06
-5.92444e-07
1.92962e-06
-8.39367e-07
1.95014e-06
4.63708e-07
1.97379e-06
7.44306e-07
1.97751e-06
4.53256e-07
1.9699e-06
-3.10555e-07
1.95e-06
-5.96018e-07
1.94136e-06
-4.53227e-07
1.93538e-06
-3.22492e-07
1.93256e-06
-9.53433e-08
1.93284e-06
1.83564e-07
1.9345e-06
2.21852e-07
1.95095e-06
5.49666e-07
1.94766e-06
2.55053e-07
1.96295e-06
3.57323e-07
1.94815e-06
1.51926e-07
1.95733e-06
1.81595e-07
1.66276e-07
1.94235e-06
2.04978e-06
2.10154e-07
2.06189e-06
2.97543e-07
2.04128e-06
-5.71835e-07
2.02328e-06
-8.21373e-07
2.04066e-06
4.46336e-07
2.06494e-06
7.20018e-07
2.07117e-06
4.47034e-07
2.06387e-06
-3.03263e-07
2.04432e-06
-5.76463e-07
2.03426e-06
-4.4317e-07
2.0272e-06
-3.15429e-07
2.02369e-06
-9.18398e-08
2.02534e-06
1.81921e-07
2.028e-06
2.19188e-07
2.04632e-06
5.31348e-07
2.04234e-06
2.59033e-07
2.05788e-06
3.41786e-07
2.04311e-06
1.66697e-07
2.05044e-06
1.74263e-07
1.78004e-07
2.03871e-06
2.14751e-06
2.0664e-07
2.15975e-06
2.85311e-07
2.14039e-06
-5.52483e-07
2.12151e-06
-8.02484e-07
2.13644e-06
4.31404e-07
2.16075e-06
6.95705e-07
2.16891e-06
4.38873e-07
2.16189e-06
-2.96242e-07
2.14286e-06
-5.57429e-07
2.1317e-06
-4.32014e-07
2.12411e-06
-3.07836e-07
2.11979e-06
-8.75219e-08
2.12237e-06
1.79344e-07
2.12525e-06
2.16303e-07
2.14487e-06
5.11728e-07
2.14041e-06
2.63495e-07
2.15579e-06
3.26405e-07
2.14182e-06
1.80666e-07
2.147e-06
1.69087e-07
1.86256e-07
2.13874e-06
2.24997e-06
2.0316e-07
2.26227e-06
2.73014e-07
2.24373e-06
-5.33945e-07
2.22423e-06
-7.82986e-07
2.23756e-06
4.18078e-07
2.26167e-06
6.71593e-07
2.27133e-06
4.29206e-07
2.26441e-06
-2.89313e-07
2.24591e-06
-5.38936e-07
2.23377e-06
-4.19866e-07
2.22608e-06
-3.00147e-07
2.22094e-06
-8.23892e-08
2.22415e-06
1.76137e-07
2.2268e-06
2.13658e-07
2.24721e-06
4.91314e-07
2.24264e-06
2.68064e-07
2.25744e-06
3.11608e-07
2.24493e-06
1.9318e-07
2.24794e-06
1.6607e-07
1.9126e-07
2.24294e-06
2.35741e-06
1.99628e-07
2.36973e-06
2.60696e-07
2.3516e-06
-5.1582e-07
2.33162e-06
-7.63004e-07
2.34412e-06
4.05576e-07
2.36798e-06
6.47739e-07
2.37884e-06
4.18341e-07
2.37176e-06
-2.82233e-07
2.35379e-06
-5.20965e-07
2.34063e-06
-4.0671e-07
2.33313e-06
-2.92643e-07
2.32728e-06
-7.6539e-08
2.33092e-06
1.72498e-07
2.33319e-06
2.11385e-07
2.35397e-06
4.70535e-07
2.34971e-06
2.72327e-07
2.36353e-06
2.97784e-07
2.35291e-06
2.03799e-07
2.35399e-06
1.6499e-07
1.93556e-07
2.35169e-06
2.47006e-06
1.95966e-07
2.48235e-06
2.48399e-07
2.46437e-06
-4.97838e-07
2.44394e-06
-7.42574e-07
2.45625e-06
3.93264e-07
2.47984e-06
6.24153e-07
2.49171e-06
4.06468e-07
2.48423e-06
-2.74751e-07
2.46678e-06
-5.03512e-07
2.45256e-06
-3.92495e-07
2.44538e-06
-2.85457e-07
2.43898e-06
-7.01424e-08
2.44288e-06
1.68597e-07
2.4449e-06
2.09361e-07
2.46565e-06
4.49788e-07
2.46208e-06
2.75898e-07
2.47465e-06
2.85212e-07
2.46609e-06
2.12365e-07
2.46555e-06
1.65527e-07
1.93768e-07
2.46534e-06
2.58815e-06
1.92114e-07
2.60036e-06
2.36183e-07
2.5824e-06
-4.79879e-07
2.56151e-06
-7.21678e-07
2.57408e-06
3.80692e-07
2.59736e-06
6.00873e-07
2.61016e-06
3.93669e-07
2.60206e-06
-2.66647e-07
2.58515e-06
-4.86603e-07
2.56985e-06
-3.77202e-07
2.563e-06
-2.786e-07
2.55629e-06
-6.34307e-08
2.56026e-06
1.64624e-07
2.5623e-06
2.07322e-07
2.58265e-06
4.29433e-07
2.58004e-06
2.78506e-07
2.59128e-06
2.73977e-07
2.58464e-06
2.19001e-07
2.58289e-06
1.67285e-07
1.92479e-07
2.58417e-06
2.71191e-06
1.8803e-07
2.72397e-06
2.24125e-07
2.70605e-06
-4.61957e-07
2.68462e-06
-7.00251e-07
2.69775e-06
3.67561e-07
2.72065e-06
5.77977e-07
2.73436e-06
3.79955e-07
2.72548e-06
-2.57766e-07
2.70915e-06
-4.70275e-07
2.69283e-06
-3.60876e-07
2.68621e-06
-2.71986e-07
2.67946e-06
-5.66787e-08
2.68327e-06
1.6081e-07
2.68563e-06
2.04962e-07
2.70527e-06
4.09793e-07
2.70376e-06
2.80017e-07
2.71376e-06
2.63983e-07
2.70877e-06
2.2399e-07
2.70619e-06
1.69867e-07
1.90184e-07
2.70848e-06
2.84162e-06
1.83682e-07
2.85341e-06
2.12326e-07
2.83564e-06
-4.44184e-07
2.81359e-06
-6.78204e-07
2.82747e-06
3.5368e-07
2.84987e-06
5.55579e-07
2.86452e-06
3.65308e-07
2.85477e-06
-2.48021e-07
2.83904e-06
-4.54545e-07
2.82181e-06
-3.43636e-07
2.81526e-06
-2.65443e-07
2.80877e-06
-5.01885e-08
2.81217e-06
1.57409e-07
2.8151e-06
2.02032e-07
2.83382e-06
3.91074e-07
2.83336e-06
2.80479e-07
2.84233e-06
2.55014e-07
2.83872e-06
2.276e-07
2.8356e-06
1.72985e-07
1.87241e-07
2.83855e-06
2.97753e-06
1.79047e-07
2.98895e-06
2.00906e-07
2.9715e-06
-4.26729e-07
2.94872e-06
-6.55428e-07
2.96348e-06
3.3892e-07
2.98525e-06
5.33806e-07
3.00084e-06
3.49721e-07
2.99022e-06
-2.37405e-07
2.97506e-06
-4.39384e-07
2.95711e-06
-3.25683e-07
2.9504e-06
-2.58734e-07
2.94448e-06
-4.42662e-08
2.94724e-06
1.54646e-07
2.95086e-06
1.98411e-07
2.96864e-06
3.73299e-07
2.969e-06
2.80115e-07
2.9772e-06
2.46817e-07
2.97483e-06
2.29963e-07
2.97131e-06
1.76511e-07
1.83889e-07
2.97466e-06
3.11995e-06
1.74102e-07
3.13086e-06
1.89995e-07
3.11392e-06
-4.09788e-07
3.09031e-06
-6.31818e-07
3.10605e-06
3.23186e-07
3.12708e-06
5.1277e-07
3.14357e-06
3.33231e-07
3.13215e-06
-2.25988e-07
3.11747e-06
-4.247e-07
3.09906e-06
-3.07276e-07
3.09191e-06
-2.51584e-07
3.08682e-06
-3.91765e-08
3.0888e-06
1.5267e-07
3.09309e-06
1.94126e-07
3.11004e-06
3.56344e-07
3.11092e-06
2.79232e-07
3.11853e-06
2.3921e-07
3.11743e-06
2.3106e-07
3.11353e-06
1.8041e-07
1.80331e-07
3.11709e-06
3.26919e-06
1.68826e-07
3.27945e-06
1.79726e-07
3.26323e-06
-3.9356e-07
3.23869e-06
-6.07279e-07
3.25545e-06
3.0642e-07
3.27569e-06
4.92538e-07
3.29299e-06
3.15931e-07
3.28091e-06
-2.13909e-07
3.26654e-06
-4.10337e-07
3.24799e-06
-2.88723e-07
3.24012e-06
-2.43715e-07
3.23605e-06
-3.5109e-08
3.23722e-06
1.51508e-07
3.24198e-06
1.89365e-07
3.25834e-06
3.39982e-07
3.25947e-06
2.78099e-07
3.26651e-06
2.32168e-07
3.26682e-06
2.30758e-07
3.26261e-06
1.84617e-07
1.76816e-07
3.26612e-06
3.42556e-06
1.63202e-07
3.43505e-06
1.70228e-07
3.41973e-06
-3.78233e-07
3.39419e-06
-5.81745e-07
3.412e-06
2.8861e-07
3.43142e-06
4.73121e-07
3.44937e-06
2.97976e-07
3.43685e-06
-2.01387e-07
3.42259e-06
-3.96076e-07
3.40422e-06
-2.70349e-07
3.39538e-06
-2.34877e-07
3.39242e-06
-3.21524e-08
3.39287e-06
1.51064e-07
3.3978e-06
1.84433e-07
3.41382e-06
3.23956e-07
3.41505e-06
2.76874e-07
3.42137e-06
2.25842e-07
3.42324e-06
2.28896e-07
3.41892e-06
1.88938e-07
1.73682e-07
3.42205e-06
3.5894e-06
1.57213e-07
3.59801e-06
1.61617e-07
3.58374e-06
-3.63967e-07
3.55719e-06
-5.55194e-07
3.576e-06
2.69807e-07
3.59465e-06
4.54468e-07
3.61305e-06
2.79578e-07
3.60036e-06
-1.88703e-07
3.58595e-06
-3.81664e-07
3.56807e-06
-2.52469e-07
3.55809e-06
-2.24894e-07
3.5562e-06
-3.02663e-08
3.55613e-06
1.51134e-07
3.56088e-06
1.79686e-07
3.57676e-06
3.08076e-07
3.57809e-06
2.75538e-07
3.58347e-06
2.20466e-07
3.58692e-06
2.25444e-07
3.58285e-06
1.93007e-07
1.71316e-07
3.58522e-06
3.76107e-06
1.50847e-07
3.76871e-06
1.53981e-07
3.75562e-06
-3.50876e-07
3.72809e-06
-5.27661e-07
3.74776e-06
2.50134e-07
3.76577e-06
4.36461e-07
3.78434e-06
2.61009e-07
3.77183e-06
-1.76196e-07
3.757e-06
-3.66838e-07
3.73987e-06
-2.35339e-07
3.72869e-06
-2.13709e-07
3.72769e-06
-2.92739e-08
3.72739e-06
1.51436e-07
3.7316e-06
1.75475e-07
3.74743e-06
2.92252e-07
3.74904e-06
2.73922e-07
3.75327e-06
2.16238e-07
3.75812e-06
2.20598e-07
3.75479e-06
1.9633e-07
1.70056e-07
3.75606e-06
3.94093e-06
1.441e-07
3.94754e-06
1.47373e-07
3.93569e-06
-3.39021e-07
3.90728e-06
-4.99256e-07
3.92762e-06
2.29797e-07
3.94518e-06
4.18903e-07
3.96358e-06
2.42604e-07
3.95163e-06
-1.6425e-07
3.93616e-06
-3.51364e-07
3.91994e-06
-2.19117e-07
3.90763e-06
-2.01403e-07
3.90725e-06
-2.88905e-08
3.90701e-06
1.51679e-07
3.91041e-06
1.72068e-07
3.92616e-06
2.76507e-07
3.9283e-06
2.71786e-07
3.93127e-06
2.13268e-07
3.93713e-06
2.1473e-07
3.93505e-06
1.98414e-07
1.70042e-07
3.93506e-06
4.12937e-06
1.36975e-07
4.13493e-06
1.41818e-07
4.12431e-06
-3.28398e-07
4.09521e-06
-4.70163e-07
4.11593e-06
2.09077e-07
4.1333e-06
4.01536e-07
4.15117e-06
2.24734e-07
4.14015e-06
-1.53225e-07
4.12388e-06
-3.35101e-07
4.10859e-06
-2.03828e-07
4.09537e-06
-1.8818e-07
4.09527e-06
-2.87913e-08
4.09532e-06
1.51627e-07
4.09781e-06
1.69581e-07
4.11331e-06
2.61006e-07
4.11623e-06
2.68871e-07
4.11795e-06
2.11544e-07
4.12436e-06
2.08315e-07
4.12389e-06
1.98893e-07
1.71111e-07
4.12282e-06
4.32679e-06
1.29487e-07
4.3313e-06
1.37307e-07
4.32184e-06
-3.18937e-07
4.29233e-06
-4.40653e-07
4.31307e-06
1.88333e-07
4.33058e-06
3.84035e-07
4.3475e-06
2.07808e-07
4.33771e-06
-1.43438e-07
4.32066e-06
-3.18044e-07
4.30618e-06
-1.89355e-07
4.2923e-06
-1.74298e-07
4.29223e-06
-2.87152e-08
4.2927e-06
1.51154e-07
4.29427e-06
1.68013e-07
4.30929e-06
2.45989e-07
4.31321e-06
2.64947e-07
4.31384e-06
2.10917e-07
4.32026e-06
2.01893e-07
4.32157e-06
1.97578e-07
1.72786e-07
4.3199e-06
4.5336e-06
1.21663e-07
4.53712e-06
1.33789e-07
4.52867e-06
-3.10489e-07
4.49909e-06
-4.11078e-07
4.51945e-06
1.67978e-07
4.53745e-06
3.66033e-07
4.55302e-06
1.92235e-07
4.54468e-06
-1.35094e-07
4.52699e-06
-3.00355e-07
4.51312e-06
-1.75479e-07
4.49884e-06
-1.60022e-07
4.49858e-06
-2.84602e-08
4.49954e-06
1.50201e-07
4.50027e-06
1.67282e-07
4.51453e-06
2.31724e-07
4.51962e-06
2.59858e-07
4.51944e-06
2.11094e-07
4.52533e-06
1.96004e-07
4.5284e-06
1.94516e-07
1.74362e-07
4.52682e-06
4.75023e-06
1.13546e-07
4.75285e-06
1.31173e-07
4.74518e-06
-3.02825e-07
4.71598e-06
-3.81878e-07
4.73547e-06
1.48494e-07
4.75438e-06
3.47121e-07
4.76825e-06
1.78368e-07
4.76131e-06
-1.28161e-07
4.74338e-06
-2.82425e-07
4.72985e-06
-1.61949e-07
4.71538e-06
-1.45553e-07
4.71481e-06
-2.78892e-08
4.71628e-06
1.48734e-07
4.71623e-06
1.67334e-07
4.72959e-06
2.18366e-07
4.73586e-06
2.53581e-07
4.73521e-06
2.11745e-07
4.74024e-06
1.90982e-07
4.7447e-06
1.90055e-07
1.75111e-07
4.74395e-06
4.97715e-06
1.05195e-07
4.97901e-06
1.29316e-07
4.9718e-06
-2.95621e-07
4.9435e-06
-3.53576e-07
4.96159e-06
1.30408e-07
4.98181e-06
3.26893e-07
4.99376e-06
1.66427e-07
4.98792e-06
-1.22328e-07
4.97029e-06
-2.64791e-07
4.95692e-06
-1.48577e-07
4.94237e-06
-1.31006e-07
4.94139e-06
-2.69117e-08
4.94339e-06
1.46741e-07
4.94263e-06
1.68092e-07
4.95493e-06
2.0607e-07
4.96235e-06
2.46155e-07
4.96158e-06
2.12514e-07
4.9656e-06
1.86959e-07
4.97092e-06
1.84744e-07
1.74499e-07
4.97153e-06
5.21482e-06
9.66917e-08
5.21612e-06
1.28019e-07
5.20895e-06
-2.88458e-07
5.18212e-06
-3.26746e-07
5.1983e-06
1.14229e-07
5.22016e-06
3.05032e-07
5.23028e-06
1.56308e-07
5.22497e-06
-1.17016e-07
5.20812e-06
-2.47937e-07
5.19486e-06
-1.35325e-07
5.18025e-06
-1.16391e-07
5.17881e-06
-2.54719e-08
5.18133e-06
1.44225e-07
5.17994e-06
1.69476e-07
5.19099e-06
1.95016e-07
5.19955e-06
2.376e-07
5.199e-06
2.13063e-07
5.20205e-06
1.83913e-07
5.20763e-06
1.79162e-07
1.72365e-07
5.20976e-06
5.46374e-06
8.81376e-08
5.46473e-06
1.27028e-07
5.45707e-06
-2.80794e-07
5.43235e-06
-3.02031e-07
5.44619e-06
1.00395e-07
5.46977e-06
2.81449e-07
5.47862e-06
1.47454e-07
5.47311e-06
-1.11497e-07
5.45727e-06
-2.32105e-07
5.44426e-06
-1.22313e-07
5.42951e-06
-1.01642e-07
5.42755e-06
-2.35092e-08
5.43054e-06
1.41239e-07
5.42869e-06
1.71325e-07
5.43831e-06
1.85395e-07
5.44795e-06
2.27955e-07
5.44794e-06
2.13073e-07
5.45009e-06
1.81769e-07
5.45554e-06
1.73705e-07
1.68956e-07
5.45895e-06
5.72445e-06
7.96505e-08
5.72543e-06
1.26046e-07
5.71659e-06
-2.71952e-07
5.69466e-06
-2.80106e-07
5.70597e-06
8.90818e-08
5.73087e-06
2.56548e-07
5.73934e-06
1.38989e-07
5.73311e-06
-1.05261e-07
5.71824e-06
-2.17239e-07
5.70562e-06
-1.09695e-07
5.69067e-06
-8.66903e-08
5.68805e-06
-2.08909e-08
5.69146e-06
1.37828e-07
5.68939e-06
1.73394e-07
5.69747e-06
1.77318e-07
5.70806e-06
2.17368e-07
5.70891e-06
2.1222e-07
5.71025e-06
1.80424e-07
5.71537e-06
1.68589e-07
1.64714e-07
5.71961e-06
5.99748e-06
7.13599e-08
5.99878e-06
1.2475e-07
5.98786e-06
-2.61031e-07
5.9695e-06
-2.61742e-07
5.97864e-06
7.99382e-08
6.00382e-06
2.31368e-07
6.01278e-06
1.30023e-07
6.0057e-06
-9.81815e-08
5.99145e-06
-2.02987e-07
5.97933e-06
-9.75703e-08
5.96411e-06
-7.14727e-08
5.9607e-06
-1.74784e-08
5.96455e-06
1.33979e-07
5.96262e-06
1.75323e-07
5.96913e-06
1.70808e-07
5.98039e-06
2.06111e-07
5.98245e-06
2.10158e-07
5.9831e-06
1.79773e-07
5.98775e-06
1.6394e-07
1.60018e-07
5.99244e-06
6.28345e-06
6.33986e-08
6.2854e-06
1.22803e-07
6.27177e-06
-2.47409e-07
6.25719e-06
-2.47156e-07
6.26504e-06
7.20819e-08
6.28927e-06
2.07138e-07
6.29913e-06
1.20173e-07
6.29125e-06
-9.03025e-08
6.27696e-06
-1.88703e-07
6.26524e-06
-8.58488e-08
6.25003e-06
-5.62608e-08
6.24585e-06
-1.33022e-08
6.25035e-06
1.29481e-07
6.24899e-06
1.76689e-07
6.25396e-06
1.65835e-07
6.26553e-06
1.94537e-07
6.26907e-06
2.06615e-07
6.26924e-06
1.79608e-07
6.27326e-06
1.59918e-07
1.55081e-07
6.2782e-06
6.58299e-06
5.58789e-08
6.58588e-06
1.19912e-07
6.57016e-06
-2.3169e-07
6.55811e-06
-2.35108e-07
6.56575e-06
6.44498e-08
6.58814e-06
1.84742e-07
6.5984e-06
1.0991e-07
6.58942e-06
-8.13144e-08
6.57461e-06
-1.73901e-07
6.56357e-06
-7.48052e-08
6.54899e-06
-4.16805e-08
6.54421e-06
-8.52414e-09
6.54952e-06
1.24168e-07
6.54914e-06
1.77071e-07
6.55268e-06
1.62293e-07
6.56408e-06
1.83138e-07
6.56931e-06
2.01393e-07
6.56931e-06
1.796e-07
6.57252e-06
1.56712e-07
1.50033e-07
6.57757e-06
6.89677e-06
4.88979e-08
6.90092e-06
1.1576e-07
6.8837e-06
-2.14469e-07
6.87297e-06
-2.24377e-07
6.88106e-06
5.63574e-08
6.90146e-06
1.64348e-07
6.91133e-06
1.00034e-07
6.9013e-06
-7.12823e-08
6.88629e-06
-1.58886e-07
6.87605e-06
-6.45657e-08
6.86227e-06
-2.79021e-08
6.85681e-06
-3.06576e-09
6.86281e-06
1.18167e-07
6.86367e-06
1.76215e-07
6.86603e-06
1.59927e-07
6.87674e-06
1.72427e-07
6.88363e-06
1.94505e-07
6.88395e-06
1.79278e-07
6.88622e-06
1.54444e-07
1.45071e-07
6.89118e-06
7.2255e-06
4.25322e-08
7.23137e-06
1.0989e-07
7.21287e-06
-1.95967e-07
7.20265e-06
-2.14158e-07
7.21143e-06
4.75809e-08
7.23004e-06
1.45732e-07
7.23947e-06
9.06095e-08
7.22906e-06
-6.08794e-08
7.21349e-06
-1.43308e-07
7.20379e-06
-5.48709e-08
7.19083e-06
-1.49417e-08
7.18465e-06
3.11956e-09
7.19098e-06
1.11835e-07
7.1932e-06
1.73991e-07
7.19469e-06
1.58439e-07
7.20429e-06
1.62823e-07
7.21259e-06
1.86213e-07
7.21373e-06
1.78139e-07
7.21514e-06
1.53028e-07
1.40511e-07
7.2197e-06
7.56992e-06
3.68352e-08
7.57799e-06
1.0182e-07
7.5584e-06
-1.76373e-07
7.54817e-06
-2.03933e-07
7.55739e-06
3.83607e-08
7.57478e-06
1.28351e-07
7.58393e-06
8.14539e-08
7.57348e-06
-5.04274e-08
7.55701e-06
-1.26838e-07
7.54733e-06
-4.51866e-08
7.53536e-06
-2.97293e-09
7.52863e-06
9.84407e-09
7.53487e-06
1.05602e-07
7.53842e-06
1.70439e-07
7.53937e-06
1.57485e-07
7.54757e-06
1.54627e-07
7.55684e-06
1.7694e-07
7.55919e-06
1.75786e-07
7.56007e-06
1.52156e-07
1.36663e-07
7.56391e-06
7.93083e-06
3.18153e-08
7.94092e-06
9.17271e-08
7.92131e-06
-1.5676e-07
7.91052e-06
-1.93138e-07
7.92006e-06
2.88179e-08
7.93634e-06
1.12074e-07
7.94641e-06
7.13749e-08
7.93607e-06
-4.00852e-08
7.9174e-06
-1.08164e-07
7.90734e-06
-3.51317e-08
7.89655e-06
7.81676e-09
7.88955e-06
1.68475e-08
7.89531e-06
9.98445e-08
7.90003e-06
1.65714e-07
7.90082e-06
1.56699e-07
7.90748e-06
1.47971e-07
7.9172e-06
1.67219e-07
7.92096e-06
1.72026e-07
7.92173e-06
1.51381e-07
1.33675e-07
7.92472e-06
8.30903e-06
2.74679e-08
8.32031e-06
8.04421e-08
8.30238e-06
-1.38827e-07
8.29081e-06
-1.81569e-07
8.3004e-06
1.92302e-08
8.31491e-06
9.75624e-08
8.32573e-06
6.05515e-08
8.31483e-06
-2.91774e-08
8.29466e-06
-8.79983e-08
8.28478e-06
-2.52485e-08
8.27522e-06
1.73715e-08
8.26806e-06
2.40145e-08
8.27315e-06
9.47455e-08
8.27878e-06
1.60083e-07
8.27977e-06
1.55718e-07
8.2849e-06
1.42838e-07
8.29456e-06
1.57556e-07
8.29972e-06
1.6687e-07
8.30082e-06
1.50273e-07
1.31442e-07
8.30306e-06
8.70535e-06
2.37834e-08
8.71748e-06
6.83086e-08
8.70099e-06
-1.22337e-07
8.68899e-06
-1.69568e-07
8.69813e-06
1.00905e-08
8.70884e-06
8.68516e-08
8.71352e-06
5.58707e-08
8.70483e-06
-2.0491e-08
8.68931e-06
-7.24756e-08
8.68065e-06
-1.65911e-08
8.6721e-06
2.59237e-08
8.6649e-06
3.12138e-08
8.66924e-06
9.04069e-08
8.67556e-06
1.53762e-07
8.67702e-06
1.54263e-07
8.6808e-06
1.39059e-07
8.68991e-06
1.48446e-07
8.69629e-06
1.60482e-07
8.69804e-06
1.48525e-07
1.2969e-07
8.69979e-06
9.12069e-06
2.07147e-08
9.13343e-06
5.5571e-08
9.11774e-06
-1.0665e-07
9.10292e-06
-1.54745e-07
9.10644e-06
6.56339e-09
9.11461e-06
7.86848e-08
9.12069e-06
4.97854e-08
9.11649e-06
-1.62858e-08
9.10356e-06
-5.95481e-08
9.09576e-06
-8.78411e-09
9.08804e-06
3.36421e-08
9.08092e-06
3.83332e-08
9.08442e-06
8.69039e-08
9.09123e-06
1.46953e-07
9.09335e-06
1.52141e-07
9.0961e-06
1.36311e-07
9.10424e-06
1.40303e-07
9.11157e-06
1.53152e-07
9.11419e-06
1.45911e-07
1.28126e-07
9.11575e-06
9.55599e-06
1.81858e-08
9.5684e-06
4.31557e-08
9.55389e-06
-9.21344e-08
9.53765e-06
-1.38504e-07
9.54216e-06
2.04644e-09
9.54979e-06
7.10592e-08
9.55398e-06
4.55995e-08
9.54958e-06
-1.18877e-08
9.53799e-06
-4.79622e-08
9.53076e-06
-1.55372e-09
9.52392e-06
4.04826e-08
9.51704e-06
4.52111e-08
9.51969e-06
8.42542e-08
9.5267e-06
1.39942e-07
9.52959e-06
1.49258e-07
9.53168e-06
1.34213e-07
9.5386e-06
1.3339e-07
9.54644e-06
1.45312e-07
9.55004e-06
1.42311e-07
1.26467e-07
9.5517e-06
1.00122e-05
1.61209e-08
1.00236e-05
3.18016e-08
1.00112e-05
-7.97932e-08
9.99484e-06
-1.22135e-07
9.99881e-06
-1.91851e-09
1.00059e-05
6.39418e-08
1.00086e-05
4.29523e-08
1.00039e-05
-7.16672e-09
9.99333e-06
-3.7436e-08
9.98664e-06
5.13642e-09
9.98071e-06
4.64062e-08
9.97418e-06
5.17471e-08
9.976e-06
8.24317e-08
9.98296e-06
1.32978e-07
9.98661e-06
1.45615e-07
9.98844e-06
1.32374e-07
9.99409e-06
1.27748e-07
1.0002e-05
1.37431e-07
1.00065e-05
1.37735e-07
1.24462e-07
1.00085e-05
1.04903e-05
1.44198e-08
1.05005e-05
2.16251e-08
1.04904e-05
-6.96546e-08
1.04743e-05
-1.06018e-07
1.04771e-05
-4.73905e-09
1.04838e-05
5.71757e-08
1.04854e-05
4.13628e-08
1.04802e-05
-1.95399e-09
1.04704e-05
-2.76517e-08
1.04644e-05
1.12004e-08
1.04594e-05
5.14212e-08
1.04533e-05
5.77892e-08
1.04544e-05
8.13614e-08
1.04611e-05
1.26268e-07
1.04654e-05
1.41292e-07
1.04673e-05
1.30477e-07
1.04718e-05
1.23246e-07
1.04793e-05
1.29943e-07
1.04847e-05
1.32357e-07
1.21942e-07
1.04872e-05
1.09914e-05
1.29893e-08
1.10003e-05
1.27878e-08
1.09922e-05
-6.16188e-08
1.09765e-05
-9.02827e-08
1.0978e-05
-6.25587e-09
1.09844e-05
5.07617e-08
1.09854e-05
4.03786e-08
1.09798e-05
3.71721e-09
1.09705e-05
-1.83956e-08
1.09651e-05
1.66301e-08
1.0961e-05
5.55437e-08
1.09555e-05
6.32656e-08
1.09559e-05
8.09496e-08
1.09622e-05
1.19981e-07
1.0967e-05
1.36441e-07
1.09692e-05
1.28277e-07
1.09729e-05
1.19617e-07
1.09796e-05
1.2315e-07
1.09856e-05
1.26444e-07
1.18812e-07
1.09887e-05
1.15166e-05
1.17429e-08
1.1524e-05
5.40379e-09
1.15176e-05
-5.5241e-08
1.15025e-05
-7.51753e-08
1.15027e-05
-6.41037e-09
1.15088e-05
4.46461e-08
1.15096e-05
3.95675e-08
1.15036e-05
9.68658e-09
1.14947e-05
-9.4604e-09
1.14897e-05
2.1569e-08
1.14865e-05
5.88204e-08
1.14817e-05
6.80351e-08
1.14816e-05
8.10469e-08
1.14874e-05
1.14204e-07
1.14926e-05
1.31242e-07
1.14952e-05
1.2565e-07
1.14983e-05
1.16553e-07
1.15042e-05
1.17208e-07
1.15103e-05
1.20314e-07
1.15086e-07
1.15141e-05
1.20669e-05
1.06157e-08
1.20727e-05
-3.1389e-10
1.20674e-05
-5.00181e-08
1.20533e-05
-6.10713e-08
1.20522e-05
-5.31928e-09
1.2058e-05
3.89231e-08
1.20589e-05
3.86294e-08
1.20529e-05
1.56606e-08
1.20442e-05
-7.27966e-10
1.20396e-05
2.61843e-08
1.20371e-05
6.12936e-08
1.20331e-05
7.2e-08
1.20327e-05
8.14931e-08
1.20379e-05
1.09021e-07
1.20432e-05
1.25886e-07
1.20463e-05
1.22606e-07
1.20491e-05
1.13755e-07
1.20542e-05
1.12107e-07
1.20602e-05
1.14269e-07
1.10832e-07
1.20645e-05
1.26436e-05
9.5808e-09
1.26474e-05
-4.05951e-09
1.26427e-05
-4.53477e-08
1.26303e-05
-4.86564e-08
1.26282e-05
-3.25627e-09
1.26333e-05
3.38933e-08
1.26345e-05
3.73811e-08
1.26288e-05
2.13216e-08
1.26204e-05
7.76352e-09
1.26159e-05
3.06613e-08
1.26141e-05
6.30965e-08
1.26109e-05
7.51376e-08
1.26103e-05
8.21465e-08
1.26149e-05
1.04444e-07
1.26203e-05
1.2048e-07
1.26237e-05
1.19183e-07
1.26265e-05
1.10989e-07
1.26309e-05
1.07688e-07
1.26366e-05
1.08577e-07
1.06167e-07
1.26412e-05
1.32479e-05
8.6154e-09
1.32494e-05
-5.54541e-09
1.32453e-05
-4.1267e-08
1.32349e-05
-3.82641e-08
1.32321e-05
-4.26364e-10
1.3236e-05
2.99385e-08
1.32375e-05
3.58955e-08
1.32325e-05
2.63404e-08
1.32244e-05
1.5912e-08
1.32199e-05
3.512e-08
1.32186e-05
6.43829e-08
1.32163e-05
7.7465e-08
1.32156e-05
8.28174e-08
1.32196e-05
1.0044e-07
1.3225e-05
1.15133e-07
1.32287e-05
1.15431e-07
1.32315e-05
1.08157e-07
1.32355e-05
1.03768e-07
1.32406e-05
1.034e-07
1.01309e-07
1.32455e-05
1.38811e-05
7.70466e-09
1.38811e-05
-5.56582e-09
1.38772e-05
-3.73412e-08
1.38686e-05
-2.97271e-08
1.38652e-05
2.97735e-09
1.38678e-05
2.73669e-08
1.38693e-05
3.43953e-08
1.38651e-05
3.05509e-08
1.38575e-05
2.35078e-08
1.3853e-05
3.95819e-08
1.38521e-05
6.53408e-08
1.38506e-05
7.89811e-08
1.385e-05
8.33885e-08
1.38535e-05
9.69663e-08
1.38586e-05
1.09975e-07
1.38626e-05
1.11432e-07
1.38656e-05
1.05202e-07
1.38692e-05
1.00168e-07
1.38739e-05
9.87074e-08
9.64929e-08
1.38787e-05
1.45445e-05
6.87728e-09
1.45434e-05
-4.47078e-09
1.45395e-05
-3.3401e-08
1.45326e-05
-2.28917e-08
1.4529e-05
6.60415e-09
1.45301e-05
2.627e-08
1.45313e-05
3.32181e-08
1.45279e-05
3.39458e-08
1.45211e-05
3.02963e-08
1.45167e-05
4.39677e-08
1.45159e-05
6.61656e-08
1.45151e-05
7.97798e-08
1.45147e-05
8.37606e-08
1.45177e-05
9.39526e-08
1.45226e-05
1.05048e-07
1.45268e-05
1.0727e-07
1.45299e-05
1.02073e-07
1.45333e-05
9.67531e-08
1.45377e-05
9.43989e-08
9.19018e-08
1.45422e-05
1.52396e-05
6.17281e-09
1.5238e-05
-2.91804e-09
1.52338e-05
-2.91179e-08
1.52282e-05
-1.7349e-08
1.52247e-05
1.01168e-08
1.52244e-05
2.65172e-08
1.5225e-05
3.26793e-08
1.52223e-05
3.66468e-08
1.52165e-05
3.61118e-08
1.52123e-05
4.81413e-08
1.52115e-05
6.69616e-08
1.52112e-05
8.00309e-08
1.52112e-05
8.38268e-08
1.52138e-05
9.13148e-08
1.52185e-05
1.00373e-07
1.52228e-05
1.03005e-07
1.52261e-05
9.87761e-08
1.52294e-05
9.34336e-08
1.52334e-05
9.0395e-08
8.76035e-08
1.52377e-05
1.59679e-05
5.63407e-09
1.59662e-05
-1.25251e-09
1.59615e-05
-2.44374e-08
1.59568e-05
-1.26547e-08
1.59537e-05
1.32672e-08
1.59524e-05
2.78014e-08
1.59521e-05
3.29809e-08
1.59499e-05
3.8853e-08
1.59451e-05
4.09484e-08
1.59413e-05
5.19352e-08
1.59405e-05
6.77172e-08
1.59407e-05
7.98778e-08
1.59409e-05
8.35492e-08
1.59433e-05
8.89585e-08
1.59476e-05
9.6015e-08
1.5952e-05
9.86742e-08
1.59554e-05
9.5343e-08
1.59587e-05
9.01515e-08
1.59625e-05
8.66023e-08
8.35706e-08
1.59665e-05
1.67309e-05
5.2978e-09
1.67292e-05
5.18017e-10
1.67242e-05
-1.95181e-08
1.67201e-05
-8.48755e-09
1.67174e-05
1.59563e-08
1.67155e-05
2.97388e-08
1.67143e-05
3.41174e-08
1.67123e-05
4.08495e-08
1.67084e-05
4.48786e-08
1.67051e-05
5.52075e-08
1.67044e-05
6.84209e-08
1.67049e-05
7.9404e-08
1.67055e-05
8.29519e-08
1.67077e-05
8.67724e-08
1.67117e-05
9.20094e-08
1.6716e-05
9.43522e-08
1.67196e-05
9.17495e-08
1.67229e-05
8.68895e-08
1.67265e-05
8.29303e-08
7.97452e-08
1.67304e-05
1.75305e-05
5.17502e-09
1.75288e-05
2.17877e-09
1.75237e-05
-1.44124e-08
1.75197e-05
-4.47336e-09
1.75174e-05
1.82449e-08
1.75152e-05
3.19603e-08
1.75134e-05
3.59516e-08
1.75113e-05
4.28885e-08
1.75082e-05
4.8032e-08
1.75055e-05
5.78864e-08
1.75049e-05
6.903e-08
1.75056e-05
7.86889e-08
1.75065e-05
8.20442e-08
1.75086e-05
8.46893e-08
1.75123e-05
8.82922e-08
1.75165e-05
9.01431e-08
1.75203e-05
8.79858e-08
1.75236e-05
8.36118e-08
1.75271e-05
7.93657e-08
7.60543e-08
1.75308e-05
1.83683e-05
5.26212e-09
1.83666e-05
3.79488e-09
1.83616e-05
-9.33705e-09
1.83575e-05
-4.14557e-10
1.83555e-05
2.02822e-08
1.83532e-05
3.41934e-08
1.83509e-05
3.82772e-08
1.83487e-05
4.50755e-08
1.83461e-05
5.06316e-08
1.8344e-05
5.99761e-08
1.83436e-05
6.94518e-08
1.83445e-05
7.78148e-08
1.83457e-05
8.08251e-08
1.83477e-05
8.26697e-08
1.83512e-05
8.48171e-08
1.83553e-05
8.60794e-08
1.83591e-05
8.414e-08
1.83625e-05
8.02376e-08
1.83659e-05
7.59234e-08
7.24312e-08
1.83696e-05
1.92461e-05
5.53085e-09
1.92445e-05
5.41589e-09
1.92396e-05
-4.43221e-09
1.92354e-05
3.7733e-09
1.92334e-05
2.2252e-08
1.92313e-05
3.63173e-08
1.92287e-05
4.0851e-08
1.92264e-05
4.73963e-08
1.92242e-05
5.28995e-08