/*--------------------------------*- C++ -*----------------------------------*\
| =========                 |                                                 |
| \\      /  F ield         | OpenFOAM: The Open Source CFD Toolbox           |
|  \\    /   O peration     | Version:  3.0.1                                 |
|   \\  /    A nd           | Web:      www.OpenFOAM.org                      |
|    \\/     M anipulation  |                                                 |
\*---------------------------------------------------------------------------*/
FoamFile
{
    version     2.0;
    format      ascii;
    class       volVectorField;
    location    "2.9";
    object      U;
}
// * * * * * * * * * * * * * * * * * * * * * * * * * * * * * * * * * * * * * //

dimensions      [0 1 -1 0 0 0 0];

internalField   nonuniform List<vector> 
9600
(
(0.844989 0.0024954 0)
(1.16522 0.00189029 0)
(0.775498 -0.00807248 0)
(1.17581 -0.00569796 0)
(0.951295 0.00758681 0)
(1.11589 0.00640018 0)
(0.789571 0.00670632 0)
(1.13565 -0.00528645 0)
(0.807512 -0.0137578 0)
(1.12358 -0.0063268 0)
(0.897465 -0.00822011 0)
(1.09507 -0.00240411 0)
(0.914748 0.00403027 0)
(1.09499 0.00399632 0)
(0.890694 0.018222 0)
(1.07813 0.00559659 0)
(0.854214 0.0152894 0)
(1.06626 0.0014179 0)
(0.823726 0.0104767 0)
(1.0666 -0.00213109 0)
(0.853666 0.00231768 0)
(1.15278 0.00270952 0)
(0.793796 -0.00834387 0)
(1.16214 -0.00712758 0)
(0.958123 0.007642 0)
(1.10447 0.00823902 0)
(0.814993 0.00627284 0)
(1.10793 -0.00528203 0)
(0.840672 -0.0139128 0)
(1.0993 -0.00736111 0)
(0.920904 -0.00808561 0)
(1.0759 -0.00247006 0)
(0.937922 0.00372331 0)
(1.06918 0.00460976 0)
(0.92516 0.0181728 0)
(1.03373 0.00663003 0)
(0.912926 0.0155227 0)
(0.994193 0.00239668 0)
(0.91994 0.0117601 0)
(0.955734 -0.00262663 0)
(0.870868 0.00221345 0)
(1.13041 0.00324757 0)
(0.826196 -0.00867672 0)
(1.13472 -0.00826743 0)
(0.972043 0.00812952 0)
(1.08468 0.00979757 0)
(0.85705 0.00609196 0)
(1.07161 -0.00534961 0)
(0.888664 -0.0140506 0)
(1.06198 -0.0082374 0)
(0.954674 -0.0078234 0)
(1.04556 -0.00269179 0)
(0.968553 0.00372989 0)
(1.03544 0.00502091 0)
(0.961314 0.0187836 0)
(1.001 0.00715481 0)
(0.952139 0.0160639 0)
(0.970813 0.00245489 0)
(0.95477 0.011418 0)
(0.956508 -0.000788675 0)
(0.894152 0.00216419 0)
(1.10212 0.00362845 0)
(0.867184 -0.00884314 0)
(1.09789 -0.00921922 0)
(0.988319 0.00850417 0)
(1.06284 0.0108981 0)
(0.903153 0.00617958 0)
(1.03828 -0.0056175 0)
(0.933935 -0.0140465 0)
(1.0272 -0.00895261 0)
(0.98225 -0.00766344 0)
(1.02096 -0.00286823 0)
(0.987735 0.00390777 0)
(1.01207 0.00526623 0)
(0.978996 0.0193995 0)
(0.989359 0.00746926 0)
(0.967209 0.0166228 0)
(0.971429 0.0024833 0)
(0.964919 0.0117051 0)
(0.966695 0.000146158 0)
(0.919761 0.00215553 0)
(1.07308 0.00387346 0)
(0.908698 -0.00886373 0)
(1.05953 -0.0100591 0)
(1.00107 0.00865765 0)
(1.04461 0.011706 0)
(0.943044 0.00644714 0)
(1.01615 -0.00591673 0)
(0.965569 -0.0139535 0)
(1.00506 -0.00950632 0)
(0.996712 -0.00763949 0)
(1.00811 -0.00290569 0)
(0.994464 0.00406946 0)
(0.999687 0.00551985 0)
(0.983542 0.0197206 0)
(0.986647 0.00788319 0)
(0.973158 0.0168108 0)
(0.975633 0.0027914 0)
(0.97082 0.0117382 0)
(0.972851 0.000996052 0)
(0.943773 0.00217953 0)
(1.04822 0.00398187 0)
(0.943944 -0.00876881 0)
(1.02717 -0.0107169 0)
(1.00685 0.00865366 0)
(1.03246 0.0122589 0)
(0.972201 0.00678513 0)
(1.00654 -0.00612938 0)
(0.983288 -0.0138278 0)
(0.995229 -0.00987023 0)
(1.00126 -0.00770107 0)
(1.0027 -0.00286615 0)
(0.995233 0.00425323 0)
(0.993385 0.00581418 0)
(0.983538 0.0198779 0)
(0.986754 0.00824884 0)
(0.977281 0.0167678 0)
(0.980433 0.00317534 0)
(0.976642 0.0114131 0)
(0.978388 0.00205486 0)
(0.963317 0.00221553 0)
(1.03036 0.00398419 0)
(0.969807 -0.0085783 0)
(1.00484 -0.0111467 0)
(1.00595 0.0084877 0)
(1.02534 0.0125574 0)
(0.991163 0.00711171 0)
(1.00555 -0.0062183 0)
(0.992034 -0.0136588 0)
(0.992305 -0.0100814 0)
(1.00117 -0.00778639 0)
(0.99976 -0.00279115 0)
(0.994196 0.00448029 0)
(0.990211 0.00611963 0)
(0.983378 0.0199121 0)
(0.988172 0.00849926 0)
(0.981623 0.016599 0)
(0.985483 0.00356502 0)
(0.982702 0.0109868 0)
(0.983961 0.00311988 0)
(0.977283 0.00224175 0)
(1.01951 0.00392107 0)
(0.986606 -0.00832116 0)
(0.992458 -0.011363 0)
(1.00124 0.00816963 0)
(1.02074 0.0126297 0)
(1.00256 0.00737572 0)
(1.00826 -0.00620047 0)
(0.996447 -0.0134232 0)
(0.991916 -0.0101852 0)
(0.999585 -0.00784806 0)
(0.997194 -0.00271339 0)
(0.992761 0.00470568 0)
(0.988818 0.00639191 0)
(0.984415 0.0198239 0)
(0.990471 0.00866638 0)
(0.986338 0.0162986 0)
(0.990348 0.00398057 0)
(0.988502 0.0105155 0)
(0.989152 0.00419857 0)
(0.986179 0.00224686 0)
(1.01374 0.00382352 0)
(0.996477 -0.00803128 0)
(0.987386 -0.0114095 0)
(0.995972 0.0077698 0)
(1.0168 0.0125196 0)
(1.00895 0.00755188 0)
(1.01135 -0.00611176 0)
(0.999055 -0.0131185 0)
(0.992197 -0.0102045 0)
(0.997764 -0.00786675 0)
(0.994677 -0.00264824 0)
(0.991376 0.00489776 0)
(0.988472 0.00659889 0)
(0.986578 0.0196229 0)
(0.993311 0.00878481 0)
(0.991031 0.0158751 0)
(0.994662 0.00444361 0)
(0.993501 0.0100011 0)
(0.993553 0.0052795 0)
(0.991388 0.00223109 0)
(1.01071 0.00370854 0)
(1.00184 -0.00773508 0)
(0.986514 -0.0113353 0)
(0.99208 0.00736197 0)
(1.01292 0.0122807 0)
(1.01215 0.00764275 0)
(1.01343 -0.00598576 0)
(1.00079 -0.0127607 0)
(0.992704 -0.0101499 0)
(0.99621 -0.00783621 0)
(0.99238 -0.00259003 0)
(0.990217 0.00503751 0)
(0.988697 0.00672199 0)
(0.989264 0.0193112 0)
(0.996196 0.00888122 0)
(0.995184 0.0153613 0)
(0.998133 0.00496381 0)
(0.997355 0.00947485 0)
(0.996906 0.0063073 0)
(0.994349 0.00220164 0)
(1.00883 0.00358359 0)
(1.00459 -0.00744733 0)
(0.987528 -0.0111831 0)
(0.989974 0.00698988 0)
(1.00925 0.0119649 0)
(1.01337 0.00766028 0)
(1.01432 -0.00584739 0)
(1.0019 -0.0123742 0)
(0.99334 -0.0100315 0)
(0.99515 -0.00775683 0)
(0.990523 -0.0025316 0)
(0.989322 0.00511082 0)
(0.989119 0.00675998 0)
(0.991787 0.0188918 0)
(0.998587 0.00897675 0)
(0.998341 0.0147913 0)
(1.00057 0.00554383 0)
(0.99997 0.00896855 0)
(0.99915 0.00725076 0)
(0.99609 0.00216618 0)
(1.00737 0.00345328 0)
(1.00594 -0.00717619 0)
(0.989105 -0.0109852 0)
(0.989195 0.00667095 0)
(1.00605 0.0116068 0)
(1.01343 0.00761806 0)
(1.01437 -0.00571018 0)
(1.00252 -0.01198 0)
(0.993992 -0.00986442 0)
(0.994615 -0.00763234 0)
(0.989238 -0.00246928 0)
(0.98868 0.00512375 0)
(0.98949 0.00673149 0)
(0.993658 0.0183776 0)
(1.00016 0.00908427 0)
(1.00032 0.0141966 0)
(1.00195 0.00616311 0)
(1.00149 0.0085072 0)
(1.00042 0.00806532 0)
(0.997187 0.00212965 0)
(1.00616 0.00332039 0)
(1.00656 -0.00692375 0)
(0.990618 -0.0107611 0)
(0.989131 0.00640324 0)
(1.0035 0.0112321 0)
(1.0129 0.00753137 0)
(1.01397 -0.00557778 0)
(1.00277 -0.0115899 0)
(0.994548 -0.00966172 0)
(0.994486 -0.00747494 0)
(0.988513 -0.00239339 0)
(0.988274 0.00509066 0)
(0.989729 0.00666448 0)
(0.994737 0.0177878 0)
(1.00089 0.00921813 0)
(1.00125 0.0135845 0)
(1.00249 0.00679868 0)
(1.00222 0.00812813 0)
(1.001 0.00872177 0)
(0.997911 0.00209394 0)
(1.00522 0.00318628 0)
(1.0068 -0.00668775 0)
(0.991828 -0.0105217 0)
(0.989364 0.00617772 0)
(1.00163 0.0108564 0)
(1.01217 0.00740837 0)
(1.01342 -0.00545103 0)
(1.00282 -0.011209 0)
(0.994951 -0.00943188 0)
(0.994596 -0.00730131 0)
(0.988223 -0.00229488 0)
(0.98807 0.00502703 0)
(0.98987 0.00657924 0)
(0.995179 0.0171495 0)
(1.00101 0.00937792 0)
(1.00149 0.012968 0)
(1.00247 0.0074127 0)
(1.00249 0.007855 0)
(1.00119 0.00920689 0)
(0.998397 0.00205904 0)
(1.00453 0.00305145 0)
(1.00684 -0.00646352 0)
(0.992693 -0.0102727 0)
(0.989698 0.00598246 0)
(1.00039 0.010484 0)
(1.01147 0.00725755 0)
(1.01286 -0.00532682 0)
(1.00278 -0.0108385 0)
(0.995205 -0.00917932 0)
(0.994808 -0.00712325 0)
(0.988212 -0.00217146 0)
(0.988024 0.00493987 0)
(0.989986 0.00649939 0)
(0.995258 0.0164814 0)
(1.00079 0.00954356 0)
(1.00138 0.0123789 0)
(1.00219 0.00796257 0)
(1.00256 0.00768156 0)
(1.00123 0.00952086 0)
(0.998725 0.00202414 0)
(1.00406 0.00291621 0)
(1.00677 -0.00624594 0)
(0.993266 -0.0100168 0)
(0.990064 0.00580455 0)
(0.999642 0.0101158 0)
(1.01088 0.00708508 0)
(1.01235 -0.00520137 0)
(1.00271 -0.0104783 0)
(0.99535 -0.0089051 0)
(0.995042 -0.00694641 0)
(0.988358 -0.00202834 0)
(0.988094 0.00483806 0)
(0.990132 0.0064345 0)
(0.995209 0.0157932 0)
(1.00046 0.00970451 0)
(1.00119 0.0118284 0)
(1.00186 0.00843316 0)
(1.00257 0.00760523 0)
(1.00125 0.00969272 0)
(0.998949 0.00198828 0)
(1.00375 0.00278114 0)
(1.00665 -0.00603119 0)
(0.993637 -0.00975506 0)
(0.990442 0.00563271 0)
(0.999255 0.00975168 0)
(1.01043 0.00689479 0)
(1.01189 -0.00507005 0)
(1.00265 -0.010129 0)
(0.995433 -0.00860717 0)
(0.995267 -0.00677697 0)
(0.988589 -0.00186816 0)
(0.988249 0.00472633 0)
(0.990338 0.00637738 0)
(0.995176 0.0151051 0)
(1.00015 0.00984247 0)
(1.00103 0.0113262 0)
(1.00157 0.00882644 0)
(1.00261 0.00761113 0)
(1.00133 0.00975434 0)
(0.999103 0.00195065 0)
(1.00353 0.00264728 0)
(1.00649 -0.00581661 0)
(0.993896 -0.00948781 0)
(0.990823 0.00545947 0)
(0.999093 0.00939181 0)
(1.01008 0.00668854 0)
(1.01149 -0.00492767 0)
(1.00258 -0.00979115 0)
(0.995494 -0.00828624 0)
(0.995478 -0.00661617 0)
(0.988876 -0.00169441 0)
(0.988465 0.00461019 0)
(0.990614 0.00632075 0)
(0.995211 0.014429 0)
(0.999908 0.00994238 0)
(1.00094 0.0108768 0)
(1.00135 0.00914734 0)
(1.00266 0.00767632 0)
(1.00147 0.00973406 0)
(0.999204 0.00191101 0)
(1.00337 0.00251377 0)
(1.00631 -0.00560219 0)
(0.994115 -0.00921438 0)
(0.991195 0.00528003 0)
(0.999057 0.00903781 0)
(1.00976 0.00646581 0)
(1.01111 -0.00477122 0)
(1.00251 -0.00946425 0)
(0.995559 -0.00794442 0)
(0.995675 -0.00646143 0)
(0.989206 -0.00151747 0)
(0.988721 0.00450004 0)
(0.990952 0.00625228 0)
(0.995312 0.0137777 0)
(0.999737 0.0100024 0)
(1.0009 0.0104725 0)
(1.0012 0.00939286 0)
(1.00273 0.00777371 0)
(1.00165 0.00965162 0)
(0.999261 0.00186887 0)
(1.00326 0.00238185 0)
(1.00611 -0.00538895 0)
(0.994338 -0.00893343 0)
(0.99155 0.00509054 0)
(0.999088 0.00869118 0)
(1.00945 0.00622629 0)
(1.01076 -0.00459999 0)
(1.00243 -0.00914838 0)
(0.99564 -0.00758061 0)
(0.995861 -0.00631236 0)
(0.989575 -0.00135216 0)
(0.988996 0.00439582 0)
(0.991336 0.00616765 0)
(0.995456 0.013159 0)
(0.999616 0.0100229 0)
(1.0009 0.0101088 0)
(1.0011 0.00957829 0)
(1.00278 0.00789717 0)
(1.00187 0.00952235 0)
(0.999277 0.00182392 0)
(1.00319 0.00225426 0)
(1.00588 -0.0051779 0)
(0.994587 -0.00864362 0)
(0.991883 0.00488835 0)
(0.999156 0.00835357 0)
(1.00911 0.00597243 0)
(1.01042 -0.00441315 0)
(1.00232 -0.00884536 0)
(0.995742 -0.00719613 0)
(0.996036 -0.00615964 0)
(0.989977 -0.00119033 0)
(0.989275 0.00430969 0)
(0.991749 0.00606309 0)
(0.995617 0.0125697 0)
(0.999522 0.0100191 0)
(1.00089 0.00977641 0)
(1.00104 0.00971402 0)
(1.00279 0.00804734 0)
(1.00209 0.00935928 0)
(0.999261 0.001776 0)
(1.00314 0.00213143 0)
(1.00562 -0.00497252 0)
(0.994864 -0.00834301 0)
(0.992193 0.00467181 0)
(0.999246 0.00802729 0)
(1.00874 0.00570273 0)
(1.01009 -0.00420809 0)
(1.00219 -0.00855473 0)
(0.99586 -0.00680039 0)
(0.9962 -0.00599803 0)
(0.990406 -0.00104276 0)
(0.989545 0.00425143 0)
(0.992177 0.00593327 0)
(0.995784 0.0120103 0)
(0.999439 0.0100004 0)
(1.00087 0.00945612 0)
(1.00099 0.00979724 0)
(1.00276 0.00822538 0)
(1.00232 0.00917689 0)
(0.999221 0.00172459 0)
(1.00312 0.00201509 0)
(1.00534 -0.00477489 0)
(0.99516 -0.00803064 0)
(0.992485 0.00444083 0)
(0.99935 0.00771196 0)
(1.00835 0.00541977 0)
(1.00976 -0.0039885 0)
(1.00205 -0.0082707 0)
(0.99599 -0.00640153 0)
(0.996354 -0.00582319 0)
(0.990856 -0.000934131 0)
(0.989804 0.00421838 0)
(0.992606 0.00578399 0)
(0.995953 0.011469 0)
(0.999359 0.00996706 0)
(1.00085 0.00914957 0)
(1.00096 0.00982111 0)
(1.0027 0.00842594 0)
(1.00253 0.0089883 0)
(0.999171 0.00167001 0)
(1.0031 0.00190722 0)
(1.00506 -0.00458655 0)
(0.995465 -0.00770518 0)
(0.992768 0.0041962 0)
(0.999457 0.00740746 0)
(1.00794 0.00512225 0)
(1.00942 -0.0037628 0)
(1.00191 -0.00799078 0)
(0.996124 -0.00600238 0)
(0.9965 -0.00562537 0)
(0.991319 -0.00085164 0)
(0.990053 0.00420483 0)
(0.993028 0.00562826 0)
(0.99613 0.0109347 0)
(0.999277 0.00992928 0)
(1.00081 0.00887574 0)
(1.00096 0.00977594 0)
(1.0026 0.00863608 0)
(1.00272 0.00880625 0)
(0.999125 0.00161191 0)
(1.00307 0.00180812 0)
(1.00478 -0.00441055 0)
(0.995765 -0.00736574 0)
(0.993049 0.00393587 0)
(0.999558 0.00711853 0)
(1.00754 0.00481364 0)
(1.00908 -0.00353171 0)
(1.00177 -0.00771143 0)
(0.996257 -0.00561196 0)
(0.996646 -0.0053957 0)
(0.991788 -0.000794161 0)
(0.9903 0.00420727 0)
(0.993431 0.00548088 0)
(0.996322 0.0104071 0)
(0.999193 0.00989054 0)
(1.00076 0.00864488 0)
(1.00098 0.00965926 0)
(1.00248 0.00884601 0)
(1.00288 0.00864858 0)
(0.999095 0.00154958 0)
(1.00303 0.00171941 0)
(1.00451 -0.00424982 0)
(0.996054 -0.00701287 0)
(0.993338 0.00366194 0)
(0.999645 0.00683961 0)
(1.00714 0.00450694 0)
(1.00873 -0.00329783 0)
(1.00165 -0.0074218 0)
(0.996387 -0.005241 0)
(0.996795 -0.00513824 0)
(0.992259 -0.000759806 0)
(0.990549 0.00421523 0)
(0.993808 0.00534664 0)
(0.996535 0.00988029 0)
(0.999108 0.00984417 0)
(1.00071 0.0084571 0)
(1.00102 0.00947223 0)
(1.00236 0.00903728 0)
(1.003 0.00853349 0)
(0.999086 0.00148375 0)
(1.00296 0.00164134 0)
(1.00427 -0.00410333 0)
(0.996326 -0.00664741 0)
(0.99364 0.00337578 0)
(0.999712 0.00656928 0)
(1.00675 0.00419535 0)
(1.00836 -0.0030764 0)
(1.00154 -0.00711367 0)
(0.99651 -0.00488644 0)
(0.996953 -0.0048597 0)
(0.99273 -0.000742214 0)
(0.990809 0.00421998 0)
(0.994155 0.00523053 0)
(0.996774 0.00935005 0)
(0.99903 0.00978363 0)
(1.00064 0.00832094 0)
(1.00108 0.00923048 0)
(1.00225 0.00918995 0)
(1.00306 0.00849036 0)
(0.9991 0.00141375 0)
(1.00288 0.00157593 0)
(1.00405 -0.00397097 0)
(0.99658 -0.00627337 0)
(0.993956 0.00308319 0)
(0.99976 0.00630504 0)
(1.00638 0.0038848 0)
(1.00798 -0.00286924 0)
(1.00145 -0.00679288 0)
(0.996627 -0.00454956 0)
(0.997117 -0.00455514 0)
(0.9932 -0.000740438 0)
(0.991083 0.00422024 0)
(0.994469 0.00514223 0)
(0.997038 0.00883004 0)
(0.998966 0.00970275 0)
(1.00057 0.0082394 0)
(1.00115 0.00894982 0)
(1.00215 0.00927074 0)
(1.00307 0.00853507 0)
(0.999131 0.00134029 0)
(1.00277 0.0015219 0)
(1.00384 -0.00385422 0)
(0.996818 -0.00589114 0)
(0.994285 0.00278758 0)
(0.999793 0.0060387 0)
(1.00603 0.00359549 0)
(1.00759 -0.00268494 0)
(1.00137 -0.00645893 0)
(0.996737 -0.00423434 0)
(0.997285 -0.00423782 0)
(0.993669 -0.000740049 0)
(0.991376 0.00420882 0)
(0.994753 0.00508126 0)
(0.997325 0.0083235 0)
(0.998926 0.00958494 0)
(1.00048 0.00820646 0)
(1.00123 0.00865183 0)
(1.0021 0.00924996 0)
(1.00302 0.00865388 0)
(0.999174 0.00126271 0)
(1.00266 0.00147953 0)
(1.00365 -0.00375012 0)
(0.997041 -0.00550627 0)
(0.994623 0.00249629 0)
(0.999817 0.00576635 0)
(1.00569 0.00332509 0)
(1.0072 -0.00253368 0)
(1.0013 -0.00610914 0)
(0.996841 -0.00393125 0)
(0.997454 -0.00391387 0)
(0.994139 -0.000731591 0)
(0.991689 0.00418913 0)
(0.995007 0.00504698 0)
(0.997628 0.00783307 0)
(0.998921 0.00942199 0)
(1.00037 0.00821681 0)
(1.00132 0.00837402 0)
(1.00209 0.00912543 0)
(1.00295 0.00880333 0)
(0.999225 0.00118227 0)
(1.00253 0.00144767 0)
(1.00347 -0.00365526 0)
(0.997252 -0.00512619 0)
(0.994966 0.00221179 0)
(0.999837 0.00548359 0)
(1.00535 0.00308436 0)
(1.00682 -0.002404 0)
(1.00123 -0.0057484 0)
(0.996939 -0.00363254 0)
(0.997617 -0.00357936 0)
(0.994607 -0.000719933 0)
(0.992022 0.00415722 0)
(0.995234 0.005037 0)
(0.997937 0.00737091 0)
(0.998956 0.00921785 0)
(1.00026 0.00825513 0)
(1.00139 0.00814188 0)
(1.00213 0.00891149 0)
(1.00286 0.00890755 0)
(0.999278 0.00109926 0)
(1.0024 0.00142469 0)
(1.00329 -0.00356961 0)
(0.997452 -0.00475012 0)
(0.995307 0.00194319 0)
(0.999857 0.00518193 0)
(1.00502 0.00287754 0)
(1.00643 -0.0022926 0)
(1.00117 -0.00539432 0)
(0.997035 -0.00333549 0)
(0.99777 -0.00323944 0)
(0.995073 -0.000698974 0)
(0.992376 0.00410954 0)
(0.995439 0.0050514 0)
(0.998247 0.0069437 0)
(0.999035 0.00896994 0)
(1.00015 0.00829862 0)
(1.00143 0.00796504 0)
(1.00221 0.00864548 0)
(1.00281 0.00891055 0)
(0.999331 0.00101314 0)
(1.00226 0.00141028 0)
(1.00311 -0.00348867 0)
(0.997644 -0.00438886 0)
(0.995641 0.00170579 0)
(0.999878 0.00484979 0)
(1.00469 0.00269951 0)
(1.00605 -0.0021925 0)
(1.00112 -0.00506344 0)
(0.99713 -0.00304455 0)
(0.99791 -0.0028964 0)
(0.995532 -0.000668653 0)
(0.992749 0.00405027 0)
(0.995623 0.00508876 0)
(0.998548 0.00655304 0)
(0.999159 0.00867823 0)
(1.00004 0.00833114 0)
(1.00144 0.00784041 0)
(1.00231 0.00837682 0)
(1.00279 0.00880908 0)
(0.999384 0.000927183 0)
(1.00212 0.00139873 0)
(1.00294 -0.00340397 0)
(0.997829 -0.00405407 0)
(0.995965 0.00149963 0)
(0.999901 0.00449227 0)
(1.00436 0.0025449 0)
(1.00567 -0.00209149 0)
(1.00107 -0.00474967 0)
(0.997228 -0.00276151 0)
(0.998038 -0.00255282 0)
(0.995984 -0.000629051 0)
(0.993141 0.00397264 0)
(0.995789 0.00514066 0)
(0.998831 0.00620513 0)
(0.999325 0.00834806 0)
(0.999951 0.00834352 0)
(1.00142 0.00774783 0)
(1.0024 0.00812863 0)
(1.00282 0.00863265 0)
(0.999435 0.00084052 0)
(1.00197 0.00139052 0)
(1.00276 -0.00330789 0)
(0.998008 -0.00375614 0)
(0.996276 0.00133057 0)
(0.999925 0.00411724 0)
(1.00404 0.00239941 0)
(1.00529 -0.00197665 0)
(1.00102 -0.00445033 0)
(0.997332 -0.0024859 0)
(0.998152 -0.00220539 0)
(0.996424 -0.000574219 0)
(0.993553 0.00388209 0)
(0.99594 0.00520797 0)
(0.999091 0.00591131 0)
(0.999529 0.00798299 0)
(0.999881 0.00833218 0)
(1.00136 0.00767855 0)
(1.00249 0.00789791 0)
(1.00289 0.00841985 0)
(0.999484 0.000755499 0)
(1.00183 0.00137822 0)
(1.00259 -0.00319123 0)
(0.998183 -0.00350138 0)
(0.996573 0.0011998 0)
(0.99995 0.00372973 0)
(1.00373 0.00225189 0)
(1.00492 -0.00184551 0)
(1.00098 -0.00416457 0)
(0.997443 -0.00222192 0)
(0.998253 -0.00185219 0)
(0.996851 -0.000500422 0)
(0.993985 0.00377941 0)
(0.996079 0.00527794 0)
(0.999317 0.0056727 0)
(0.999768 0.00758683 0)
(0.99984 0.00828795 0)
(1.00128 0.00763857 0)
(1.00256 0.00767498 0)
(1.00298 0.00819353 0)
(0.999532 0.000673016 0)
(1.00168 0.00136095 0)
(1.00241 -0.00304129 0)
(0.998353 -0.00329232 0)
(0.996858 0.00108608 0)
(0.999973 0.00335028 0)
(1.00343 0.00209208 0)
(1.00455 -0.00170526 0)
(1.00094 -0.00388562 0)
(0.997561 -0.00197203 0)
(0.998343 -0.00149419 0)
(0.997259 -0.000401147 0)
(0.994436 0.00365975 0)
(0.996212 0.00533791 0)
(0.999505 0.00549014 0)
(1.00003 0.00716681 0)
(0.999839 0.00819006 0)
(1.00117 0.0076324 0)
(1.0026 0.00746201 0)
(1.00308 0.00795337 0)
(0.999578 0.00059476 0)
(1.00154 0.00133414 0)
(1.00223 -0.00285667 0)
(0.998518 -0.00312732 0)
(0.997129 0.000973668 0)
(0.999993 0.00300136 0)
(1.00314 0.00192591 0)
(1.00418 -0.00155245 0)
(1.0009 -0.00360332 0)
(0.997688 -0.00172937 0)
(0.998425 -0.00114126 0)
(0.997646 -0.00028492 0)
(0.994907 0.00352393 0)
(0.996347 0.0053764 0)
(0.999648 0.00536257 0)
(1.00032 0.0067399 0)
(0.999891 0.00801908 0)
(1.00104 0.00765178 0)
(1.0026 0.00727854 0)
(1.0032 0.00768859 0)
(0.999621 0.000522201 0)
(1.00139 0.00129427 0)
(1.00205 -0.00265117 0)
(0.998676 -0.00298217 0)
(0.997389 0.000857268 0)
(1.00001 0.00267507 0)
(1.00286 0.0017566 0)
(1.00383 -0.00137811 0)
(1.00086 -0.00330841 0)
(0.997826 -0.00149985 0)
(0.998496 -0.000808847 0)
(0.998007 -0.000156403 0)
(0.995393 0.00336511 0)
(0.996491 0.00537419 0)
(0.999745 0.00527954 0)
(1.0006 0.00633063 0)
(1 0.00776937 0)
(1.00091 0.00767136 0)
(1.00256 0.00715205 0)
(1.00331 0.00741101 0)
(0.999662 0.000453769 0)
(1.00125 0.00124318 0)
(1.00186 -0.00243531 0)
(0.998823 -0.00284351 0)
(0.997634 0.000732236 0)
(1.00002 0.00237206 0)
(1.00259 0.0015943 0)
(1.00349 -0.00118809 0)
(1.00083 -0.00299912 0)
(0.997972 -0.00129 0)
(0.998562 -0.000493446 0)
(0.998337 -6.7142e-06 0)
(0.995886 0.00319099 0)
(0.99665 0.00532781 0)
(0.999799 0.00522777 0)
(1.00087 0.0059587 0)
(1.00017 0.00745065 0)
(1.00079 0.00765429 0)
(1.00246 0.00708533 0)
(1.0034 0.00714355 0)
(0.9997 0.000390762 0)
(1.00112 0.00116578 0)
(1.00168 -0.00220056 0)
(0.99896 -0.00271376 0)
(0.997868 0.000601775 0)
(1.00003 0.00208993 0)
(1.00234 0.00143671 0)
(1.00316 -0.000986905 0)
(1.00079 -0.00267182 0)
(0.998128 -0.0010858 0)
(0.998627 -0.000200769 0)
(0.998634 0.000153845 0)
(0.99638 0.00300849 0)
(0.996832 0.00523446 0)
(0.999816 0.00519184 0)
(1.0011 0.00563658 0)
(1.00039 0.00708918 0)
(1.00072 0.00758172 0)
(1.00233 0.00706377 0)
(1.00346 0.00692096 0)
(0.999735 0.000343059 0)
(1.00099 0.00105606 0)
(1.00149 -0.00196535 0)
(0.999082 -0.00257769 0)
(0.99809 0.000474355 0)
(1.00005 0.0018315 0)
(1.00211 0.00126929 0)
(1.00285 -0.000795226 0)
(1.00075 -0.00231466 0)
(0.998289 -0.000872646 0)
(0.998692 6.05508e-05 0)
(0.998898 0.000332295 0)
(0.996871 0.00284099 0)
(0.997042 0.0051063 0)
(0.99981 0.00516728 0)
(1.0013 0.00536687 0)
(1.00065 0.00669934 0)
(1.00069 0.00743994 0)
(1.00216 0.00704884 0)
(1.00345 0.0067557 0)
(0.999767 0.000294156 0)
(1.00087 0.00094144 0)
(1.00131 -0.00174649 0)
(0.999195 -0.00242319 0)
(0.998301 0.000332116 0)
(1.00006 0.00160885 0)
(1.0019 0.00108726 0)
(1.00257 -0.000632584 0)
(1.00072 -0.00193315 0)
(0.998449 -0.000645587 0)
(0.998757 0.000303455 0)
(0.999133 0.000522801 0)
(0.997349 0.00269599 0)
(0.997281 0.0049526 0)
(0.99979 0.00515345 0)
(1.00146 0.00516133 0)
(1.00093 0.00630743 0)
(1.00073 0.00724023 0)
(1.002 0.00701972 0)
(1.00339 0.00664414 0)
(0.999797 0.000252567 0)
(1.00077 0.000815933 0)
(1.00114 -0.00154106 0)
(0.999294 -0.00226973 0)
(0.998503 0.0002004 0)
(1.00007 0.00140086 0)
(1.00171 0.000953333 0)
(1.00232 -0.000466774 0)
(1.00068 -0.00156889 0)
(0.998599 -0.000435864 0)
(0.998819 0.000532838 0)
(0.999334 0.000718536 0)
(0.997809 0.00256887 0)
(0.997553 0.00476973 0)
(0.999774 0.00512895 0)
(1.00157 0.0050137 0)
(1.00123 0.00592871 0)
(1.00084 0.00698622 0)
(1.00185 0.00696458 0)
(1.00328 0.00657346 0)
(0.999824 0.000222961 0)
(1.00067 0.000672737 0)
(1.00097 -0.0013452 0)
(0.999383 -0.00210207 0)
(0.998696 0.000109419 0)
(1.0001 0.00124693 0)
(1.00155 0.000875216 0)
(1.0021 -0.000328289 0)
(1.00064 -0.00127648 0)
(0.998746 -0.000262776 0)
(0.998886 0.000721081 0)
(0.999508 0.000895371 0)
(0.998245 0.0024514 0)
(0.997853 0.00455996 0)
(0.99977 0.00507588 0)
(1.00164 0.00491369 0)
(1.00152 0.00558148 0)
(1.00102 0.00667623 0)
(1.00175 0.00686552 0)
(1.00313 0.00651387 0)
(0.999847 0.000194061 0)
(1.00058 0.000535422 0)
(1.00082 -0.00117028 0)
(0.99946 -0.00190527 0)
(0.998883 4.789e-05 0)
(1.00012 0.0011547 0)
(1.0014 0.000799957 0)
(1.00189 -0.000256559 0)
(1.00062 -0.00105849 0)
(0.998901 -0.000105446 0)
(0.998964 0.000877914 0)
(0.999661 0.00105589 0)
(0.998658 0.00234715 0)
(0.998178 0.00433326 0)
(0.999789 0.00498931 0)
(1.00166 0.00484272 0)
(1.00178 0.0052862 0)
(1.00125 0.00632676 0)
(1.00169 0.00670952 0)
(1.00297 0.00644369 0)
(0.999868 0.000173888 0)
(1.00051 0.00040329 0)
(1.00068 -0.00102017 0)
(0.999533 -0.00168423 0)
(0.999062 -1.08129e-06 0)
(1.00015 0.00104032 0)
(1.00125 0.000734475 0)
(1.00171 -0.000181639 0)
(1.0006 -0.000847543 0)
(0.999066 4.52274e-05 0)
(0.999053 0.00102883 0)
(0.999794 0.00122911 0)
(0.999038 0.00228128 0)
(0.998517 0.00411149 0)
(0.999836 0.00487887 0)
(1.00166 0.00478733 0)
(1.002 0.00505309 0)
(1.0015 0.00597874 0)
(1.00171 0.00650745 0)
(1.00282 0.00636223 0)
(0.999886 0.000153393 0)
(1.00045 0.000286097 0)
(1.00056 -0.000883308 0)
(0.999597 -0.00146906 0)
(0.999226 -5.54026e-05 0)
(1.00018 0.000925552 0)
(1.00113 0.000704605 0)
(1.00154 -8.40591e-05 0)
(1.0006 -0.000643772 0)
(0.999232 0.000176098 0)
(0.999153 0.00116026 0)
(0.99991 0.00140402 0)
(0.999387 0.00225582 0)
(0.998868 0.00390619 0)
(0.999918 0.00474719 0)
(1.00165 0.00473597 0)
(1.00218 0.00487458 0)
(1.00177 0.00565424 0)
(1.00178 0.0062691 0)
(1.00269 0.00625414 0)
(0.999902 0.000138662 0)
(1.0004 0.000182145 0)
(1.00046 -0.000778537 0)
(0.999655 -0.00126559 0)
(0.999381 -8.29684e-05 0)
(1.00022 0.00082646 0)
(1.00102 0.000684686 0)
(1.00139 1.37328e-05 0)
(1.0006 -0.000459526 0)
(0.999406 0.000296032 0)
(0.999271 0.00127073 0)
(1.00002 0.0015589 0)
(0.9997 0.00224338 0)
(0.999217 0.00370621 0)
(1.00003 0.0045835 0)
(1.00163 0.00466319 0)
(1.00231 0.00472679 0)
(1.00204 0.00534817 0)
(1.00191 0.00599535 0)
(1.0026 0.0061067 0)
(0.999915 0.000125721 0)
(1.00035 9.21846e-05 0)
(1.00038 -0.000693218 0)
(0.99971 -0.0010629 0)
(0.999522 -9.55023e-05 0)
(1.00027 0.000723345 0)
(1.00092 0.000668743 0)
(1.00126 0.000125004 0)
(1.00061 -0.000271826 0)
(0.99958 0.000406104 0)
(0.999399 0.00134929 0)
(1.00011 0.00168379 0)
(0.999979 0.0022377 0)
(0.999562 0.0035266 0)
(1.00018 0.00441697 0)
(1.00162 0.00458231 0)
(1.0024 0.00461523 0)
(1.00229 0.00508192 0)
(1.00208 0.00570748 0)
(1.00257 0.00592598 0)
(0.999926 0.000113432 0)
(1.00032 2.24822e-05 0)
(1.00032 -0.000628466 0)
(0.999763 -0.000875809 0)
(0.999651 -8.71472e-05 0)
(1.00032 0.000634342 0)
(1.00085 0.000656629 0)
(1.00115 0.000234421 0)
(1.00062 -9.83647e-05 0)
(0.999752 0.000500945 0)
(0.999543 0.00140921 0)
(1.00021 0.00180539 0)
(1.00023 0.00225959 0)
(0.999899 0.0033687 0)
(1.00035 0.00424368 0)
(1.00163 0.00447629 0)
(1.00246 0.00450738 0)
(1.0025 0.00484846 0)
(1.00228 0.00541141 0)
(1.00258 0.0057125 0)
(0.999936 0.00010327 0)
(1.00029 -3.08168e-05 0)
(1.00027 -0.000573484 0)
(0.999818 -0.00070301 0)
(0.999765 -6.14805e-05 0)
(1.00038 0.000550203 0)
(1.0008 0.000635622 0)
(1.00106 0.000340964 0)
(1.00063 7.27226e-05 0)
(0.999921 0.000599721 0)
(0.999702 0.00145336 0)
(1.00031 0.00189673 0)
(1.00044 0.0022804 0)
(1.00021 0.00321453 0)
(1.00054 0.00405472 0)
(1.00166 0.00435021 0)
(1.00251 0.00439987 0)
(1.00268 0.00465892 0)
(1.00249 0.00514 0)
(1.00264 0.00548506 0)
(0.999944 9.30507e-05 0)
(1.00026 -5.93882e-05 0)
(1.00024 -0.000521052 0)
(0.999872 -0.000555526 0)
(0.999865 -2.59224e-05 0)
(1.00044 0.000481376 0)
(1.00077 0.000609047 0)
(1.00098 0.000440521 0)
(1.00065 0.000243848 0)
(1.00008 0.000701089 0)
(0.999867 0.00148181 0)
(1.00041 0.00195033 0)
(1.00064 0.00229697 0)
(1.00051 0.00309185 0)
(1.00075 0.00388089 0)
(1.00172 0.00422654 0)
(1.00255 0.00429973 0)
(1.00283 0.00449876 0)
(1.00269 0.00489491 0)
(1.00275 0.00523635 0)
(0.999951 8.3009e-05 0)
(1.00024 -6.5243e-05 0)
(1.00022 -0.000472875 0)
(0.999928 -0.000433824 0)
(0.999953 2.04765e-05 0)
(1.00049 0.00043239 0)
(1.00076 0.000579334 0)
(1.00093 0.000525228 0)
(1.00067 0.000404008 0)
(1.00023 0.000801476 0)
(1.00003 0.00150879 0)
(1.00053 0.00199322 0)
(1.00081 0.00231308 0)
(1.00078 0.00298858 0)
(1.00096 0.00371322 0)
(1.00179 0.00408675 0)
(1.00259 0.00418829 0)
(1.00296 0.00434229 0)
(1.00288 0.004668 0)
(1.00287 0.00498148 0)
(0.999957 7.3409e-05 0)
(1.00021 -5.61029e-05 0)
(1.00021 -0.000425207 0)
(0.999986 -0.000336366 0)
(1.00003 7.22332e-05 0)
(1.00054 0.000406317 0)
(1.00076 0.000554971 0)
(1.00091 0.00059108 0)
(1.00069 0.000547005 0)
(1.00037 0.000902708 0)
(1.0002 0.00153334 0)
(1.00064 0.00202634 0)
(1.00097 0.0023239 0)
(1.00103 0.00288465 0)
(1.00118 0.00354367 0)
(1.00188 0.00393447 0)
(1.00263 0.0040678 0)
(1.00305 0.00419756 0)
(1.00304 0.00446617 0)
(1.00301 0.0047454 0)
(0.999962 6.51252e-05 0)
(1.00019 -3.96274e-05 0)
(1.0002 -0.000375261 0)
(1.00004 -0.000259099 0)
(1.0001 0.000123501 0)
(1.00058 0.000404056 0)
(1.00078 0.000540607 0)
(1.0009 0.000639979 0)
(1.00072 0.000671194 0)
(1.0005 0.00100295 0)
(1.00037 0.001554 0)
(1.00076 0.00203658 0)
(1.0011 0.00233084 0)
(1.00126 0.0027964 0)
(1.00139 0.00338258 0)
(1.00199 0.00378371 0)
(1.00268 0.00394211 0)
(1.00314 0.00406082 0)
(1.00318 0.0042806 0)
(1.00315 0.004523 0)
(0.999966 5.87137e-05 0)
(1.00018 -2.16591e-05 0)
(1.0002 -0.000320678 0)
(1.0001 -0.000193285 0)
(1.00016 0.00017 0)
(1.00062 0.000419136 0)
(1.0008 0.00054055 0)
(1.00091 0.000679049 0)
(1.00076 0.000771894 0)
(1.00062 0.00109301 0)
(1.00052 0.00157993 0)
(1.00088 0.00203381 0)
(1.00123 0.00232761 0)
(1.00145 0.00272768 0)
(1.0016 0.00323238 0)
(1.00211 0.00362787 0)
(1.00273 0.00380846 0)
(1.00321 0.00391927 0)
(1.0033 0.00410301 0)
(1.00327 0.00431171 0)
(0.99997 5.41336e-05 0)
(1.00016 -2.89308e-06 0)
(1.00019 -0.000262039 0)
(1.00016 -0.000136823 0)
(1.00023 0.000209405 0)
(1.00065 0.000446373 0)
(1.00082 0.000555684 0)
(1.00093 0.000716472 0)
(1.00082 0.000851438 0)
(1.00073 0.00116599 0)
(1.00066 0.00160644 0)
(1.001 0.00203355 0)
(1.00135 0.00231267 0)
(1.00162 0.00266134 0)
(1.0018 0.00309424 0)
(1.00224 0.00346552 0)
(1.00279 0.00366831 0)
(1.00327 0.00377747 0)
(1.0034 0.00393336 0)
(1.00338 0.00411855 0)
(0.999973 5.16893e-05 0)
(1.00015 1.5526e-05 0)
(1.00019 -0.000200994 0)
(1.00021 -8.48499e-05 0)
(1.00029 0.000241813 0)
(1.00068 0.000479201 0)
(1.00084 0.000584736 0)
(1.00096 0.000754587 0)
(1.00087 0.000916326 0)
(1.00084 0.0012243 0)
(1.0008 0.00162053 0)
(1.00111 0.0020273 0)
(1.00145 0.00229562 0)
(1.00177 0.00259375 0)
(1.00197 0.00296821 0)
(1.00237 0.00330872 0)
(1.00285 0.00352116 0)
(1.00332 0.00363957 0)
(1.00349 0.00376731 0)
(1.00348 0.00393572 0)
(0.999976 5.16985e-05 0)
(1.00014 3.31265e-05 0)
(1.00019 -0.000139792 0)
(1.00026 -3.18625e-05 0)
(1.00034 0.000269217 0)
(1.00071 0.000512486 0)
(1.00086 0.000623727 0)
(1.00099 0.000794655 0)
(1.00093 0.000971342 0)
(1.00094 0.00127292 0)
(1.00093 0.00162875 0)
(1.00123 0.00200536 0)
(1.00155 0.0022737 0)
(1.0019 0.00253506 0)
(1.00213 0.00285089 0)
(1.0025 0.00316322 0)
(1.00293 0.00336941 0)
(1.00337 0.00349878 0)
(1.00357 0.00360445 0)
(1.00356 0.00375173 0)
(0.999978 5.36939e-05 0)
(1.00013 5.0297e-05 0)
(1.00019 -7.98913e-05 0)
(1.00031 2.16285e-05 0)
(1.0004 0.000295561 0)
(1.00074 0.000544156 0)
(1.00088 0.000667606 0)
(1.00103 0.000839044 0)
(1.001 0.00101787 0)
(1.00104 0.00130873 0)
(1.00105 0.00163612 0)
(1.00134 0.00197745 0)
(1.00165 0.00223518 0)
(1.00201 0.00248056 0)
(1.00227 0.00274115 0)
(1.00263 0.00301972 0)
(1.00301 0.00321771 0)
(1.00342 0.00334926 0)
(1.00363 0.00344733 0)
(1.00364 0.00356906 0)
(0.999979 5.72906e-05 0)
(1.00012 6.81558e-05 0)
(1.00019 -2.30883e-05 0)
(1.00035 7.58992e-05 0)
(1.00046 0.000323904 0)
(1.00077 0.000574047 0)
(1.00091 0.000710779 0)
(1.00107 0.000886932 0)
(1.00106 0.00106256 0)
(1.00113 0.00133386 0)
(1.00117 0.00163554 0)
(1.00144 0.00195335 0)
(1.00174 0.0021879 0)
(1.00211 0.00241726 0)