/*--------------------------------*- C++ -*----------------------------------*\
| =========                 |                                                 |
| \\      /  F ield         | OpenFOAM: The Open Source CFD Toolbox           |
|  \\    /   O peration     | Version:  3.0.1                                 |
|   \\  /    A nd           | Web:      www.OpenFOAM.org                      |
|    \\/     M anipulation  |                                                 |
\*---------------------------------------------------------------------------*/
FoamFile
{
    version     2.0;
    format      ascii;
    class       volScalarField;
    location    "3";
    object      p;
}
// * * * * * * * * * * * * * * * * * * * * * * * * * * * * * * * * * * * * * //

dimensions      [0 2 -2 0 0 0 0];

internalField   nonuniform List<scalar> 
9600
(
-8.77988e-11
-0.000518052
-0.000135701
-0.00158863
-0.00142828
0.000843751
-0.00057828
-0.00334
-0.00130854
-0.000623604
-0.000480677
-1.97518e-05
0.00141438
0.00125496
0.00215537
0.00235694
0.00304599
0.0035409
0.00333627
0.00427464
4.49386e-07
-0.000522693
-0.000138261
-0.00158285
-0.00141817
0.000811199
-0.000586634
-0.00333606
-0.00131446
-0.000617311
-0.000471906
-2.64628e-05
0.00142719
0.0012337
0.00216512
0.0022948
0.00304536
0.00343535
0.00334876
0.00398485
5.17998e-07
-0.000526809
-0.000140711
-0.00157539
-0.00140981
0.000770681
-0.000595704
-0.00331571
-0.00132198
-0.00061209
-0.000464876
-3.81073e-05
0.00143804
0.00119944
0.00216918
0.00221795
0.00303224
0.00332381
0.00334997
0.00363987
3.28548e-07
-0.000529904
-0.000144181
-0.00156836
-0.00140116
0.000729521
-0.000606234
-0.00328451
-0.00133169
-0.000608667
-0.000457823
-5.56594e-05
0.00144696
0.00115276
0.00216511
0.00213904
0.00301143
0.00322937
0.00332421
0.00333294
-1.93613e-10
-0.00053223
-0.000149435
-0.00156094
-0.00138786
0.000686585
-0.000618276
-0.00324267
-0.00134218
-0.000605456
-0.000450512
-7.74865e-05
0.00145628
0.00109625
0.00216453
0.0020582
0.00299512
0.0031384
0.00327278
0.00308626
-4.55053e-07
-0.000533854
-0.000156237
-0.00155186
-0.00136992
0.000641032
-0.000629328
-0.00319126
-0.00135123
-0.000601659
-0.00044363
-0.000100443
0.00146614
0.00103674
0.00216835
0.00197703
0.00298245
0.00304631
0.00320424
0.00287708
-1.00465e-06
-0.000534858
-0.00016407
-0.00154062
-0.00134856
0.000593597
-0.000637819
-0.0031319
-0.00135728
-0.00059718
-0.00043733
-0.000122483
0.00147698
0.00097721
0.00217242
0.00189833
0.00296484
0.00295967
0.00311503
0.00268951
-1.58284e-06
-0.000535409
-0.000172487
-0.0015273
-0.00132463
0.000544914
-0.000643485
-0.00306632
-0.00135982
-0.000592058
-0.000431639
-0.000142632
0.00148943
0.000917898
0.0021752
0.00182281
0.00293757
0.00288255
0.00299854
0.00251928
-2.14229e-06
-0.000535705
-0.000181144
-0.00151224
-0.0012989
0.000495194
-0.000646691
-0.00299614
-0.00135897
-0.000586348
-0.000426675
-0.000160419
0.00150353
0.000858853
0.00217583
0.00175148
0.00289865
0.00281594
0.00285447
0.00236399
-2.65499e-06
-0.000535902
-0.000189861
-0.001496
-0.0012721
0.000444561
-0.000648026
-0.00292283
-0.00135518
-0.000580069
-0.000422618
-0.000175847
0.00151873
0.000800669
0.00217256
0.00168667
0.00284557
0.00275991
0.00268513
0.00221679
-3.1072e-06
-0.000536108
-0.000198585
-0.00147909
-0.00124468
0.000393165
-0.000648102
-0.00284762
-0.00134905
-0.000573184
-0.00041968
-0.000189242
0.00153411
0.000744457
0.00216323
0.00163075
0.00277556
0.00271322
0.00249379
0.00206924
-3.50135e-06
-0.000536397
-0.000207297
-0.00146184
-0.00121685
0.000341171
-0.000647458
-0.0027715
-0.00134115
-0.000565577
-0.000418067
-0.000201006
0.00154851
0.000691703
0.00214548
0.00158516
0.0026867
0.00267304
0.00228583
0.00191379
-3.83875e-06
-0.000536814
-0.000215977
-0.00144439
-0.00118875
0.000288738
-0.000646519
-0.00269515
-0.00133197
-0.000557055
-0.000417953
-0.000211513
0.00156078
0.000644017
0.00211679
0.00155032
0.00257839
0.00263542
0.00206866
0.00174417
-4.11438e-06
-0.000537385
-0.00022461
-0.00142675
-0.00116045
0.000236035
-0.000645581
-0.00261896
-0.00132191
-0.000547343
-0.000419542
-0.000221031
0.00156992
0.000602611
0.00207494
0.00152606
0.00245164
0.0025953
0.00185009
0.00155688
-4.3208e-06
-0.00053813
-0.000233182
-0.00140887
-0.00113201
0.000183239
-0.000644832
-0.00254316
-0.00131136
-0.000536066
-0.000423082
-0.000229755
0.00157517
0.00056816
0.00201837
0.00151126
0.00230922
0.00254669
0.00163713
0.00135159
-4.44893e-06
-0.000539068
-0.000241683
-0.00139073
-0.00110351
0.000130562
-0.00064441
-0.00246782
-0.0013007
-0.000522879
-0.000428714
-0.000237877
0.00157594
0.000541117
0.00194625
0.00150363
0.00215499
0.00248365
0.00143579
0.00113038
-4.49008e-06
-0.000540217
-0.000250107
-0.00137228
-0.00107504
7.82215e-05
-0.000644462
-0.00239289
-0.00129027
-0.000507539
-0.000436528
-0.000245531
0.00157171
0.00052142
0.00185878
0.00150012
0.00199312
0.00240169
0.00125039
0.000896527
-4.4375e-06
-0.000541587
-0.000258458
-0.00135351
-0.00104672
2.6433e-05
-0.000645153
-0.0023182
-0.00128041
-0.000489794
-0.000446622
-0.000252983
0.00156226
0.000508366
0.00175736
0.00149733
0.00182731
0.0022986
0.00108351
0.000653871
-4.28402e-06
-0.000543186
-0.000266744
-0.00133439
-0.00101869
-2.45311e-05
-0.000646681
-0.00224354
-0.00127151
-0.000469502
-0.000458726
-0.000260884
0.00154762
0.000501507
0.00164394
0.00149186
0.00166079
0.00217373
0.000935588
0.000406935
-4.02349e-06
-0.000545017
-0.00027497
-0.00131488
-0.000991156
-7.43315e-05
-0.000649277
-0.00216871
-0.00126385
-0.000446787
-0.000472188
-0.000269937
0.00152794
0.000502758
0.00152023
0.0014811
0.00149659
0.00202697
0.00080502
0.000161056
-3.66065e-06
-0.000547063
-0.000283155
-0.00129491
-0.000964353
-0.000122612
-0.000653185
-0.00209364
-0.00125765
-0.000421906
-0.000486338
-0.000281019
0.0015036
0.000500731
0.00138789
0.00146296
0.0013367
0.00185894
0.000689558
-7.76255e-05
-3.21021e-06
-0.000549289
-0.000291352
-0.00127436
-0.000938531
-0.000169024
-0.000658661
-0.00201827
-0.00125301
-0.000395221
-0.000500414
-0.000295532
0.00147566
0.000499556
0.00124828
0.00143568
0.00118236
0.00167105
0.000586433
-0.000302847
-2.69812e-06
-0.00055163
-0.00029964
-0.00125309
-0.000913944
-0.000213213
-0.000665969
-0.00194258
-0.00124992
-0.000367507
-0.000513112
-0.000314744
0.00144458
0.000499257
0.00110197
0.00139802
0.00103573
0.00146447
0.000491463
-0.000508335
-2.17528e-06
-0.000553978
-0.000308104
-0.00123098
-0.00089089
-0.000254815
-0.00067533
-0.00186661
-0.00124815
-0.00033991
-0.000522694
-0.000339379
0.00140968
0.000499681
0.000949254
0.00134891
0.000899133
0.00124028
0.000399498
-0.000687725
-1.7133e-06
-0.000556182
-0.000316857
-0.00120786
-0.000869645
-0.000293571
-0.000686806
-0.00179047
-0.00124731
-0.000313664
-0.000527827
-0.00036994
0.00137041
0.000501103
0.000790653
0.00128655
0.00077476
0.00100131
0.000304567
-0.000835845
-1.40629e-06
-0.000558041
-0.000326063
-0.00118361
-0.000850421
-0.000329344
-0.000700366
-0.00171444
-0.00124666
-0.000290098
-0.000527764
-0.000406626
0.00132614
0.000504137
0.000626935
0.00120845
0.00066517
0.000752624
0.000199506
-0.000949513
-1.38309e-06
-0.000559238
-0.000335861
-0.00115819
-0.000833384
-0.000361986
-0.000715871
-0.00163879
-0.00124525
-0.000270497
-0.000522055
-0.000448707
0.0012751
0.000509211
0.000459576
0.00111218
0.000572148
0.000500484
7.62627e-05
-0.0010284
-1.78134e-06
-0.000559499
-0.000346364
-0.00113164
-0.000818692
-0.000391467
-0.000732761
-0.00156471
-0.00124238
-0.000255936
-0.000510518
-0.000494779
0.00121472
0.000516467
0.000290394
0.000994899
0.000495819
0.000253367
-7.27072e-05
-0.00107795
-2.76308e-06
-0.000558492
-0.000357687
-0.00110395
-0.000806427
-0.000418003
-0.000750249
-0.00149154
-0.00123755
-0.000247096
-0.000493651
-0.000543461
0.00114297
0.000525357
0.00012189
0.000854295
0.000433638
2.18091e-05
-0.000251224
-0.00110977
-4.53843e-06
-0.000555748
-0.00036988
-0.00107524
-0.000796434
-0.000442013
-0.000767658
-0.00142641
-0.00123028
-0.000244557
-0.000472461
-0.000593399
0.00105874
0.000534616
-4.22877e-05
0.000689755
0.000380186
-0.000184083
-0.000456981
-0.00114073
-7.31237e-06
-0.000551006
-0.000382915
-0.00104575
-0.000788386
-0.000464186
-0.000784233
-0.00136623
-0.0012206
-0.000248668
-0.000448129
-0.000642956
0.000960819
0.000542358
-0.00019773
0.000501931
0.000328086
-0.000356459
-0.000681237
-0.00119046
-1.12799e-05
-0.00054401
-0.000396627
-0.00101596
-0.00078179
-0.000485225
-0.000799324
-0.00131022
-0.00120883
-0.000259612
-0.000422264
-0.000690299
0.000848512
0.000545539
-0.000340454
0.000293254
0.000269455
-0.000491578
-0.000910836
-0.00127532
-1.65981e-05
-0.000534546
-0.000410743
-0.000986568
-0.000775902
-0.000505443
-0.000812548
-0.0012575
-0.00119524
-0.000277815
-0.00039689
-0.000734118
0.00072226
0.000541023
-0.000467383
6.82459e-05
0.000196527
-0.000591474
-0.00113063
-0.00140042
-2.34007e-05
-0.000522491
-0.000424823
-0.000958473
-0.000770028
-0.000525039
-0.000824069
-0.00120757
-0.00117991
-0.000303283
-0.000374345
-0.000773835
0.000583211
0.000526079
-0.000575941
-0.000167685
0.000102999
-0.000662337
-0.00132732
-0.00155803
-3.18204e-05
-0.000507908
-0.000437993
-0.000932429
-0.00076383
-0.000543892
-0.000834516
-0.0011608
-0.00116274
-0.000335756
-0.000356917
-0.000808989
0.000433172
0.000498166
-0.000664739
-0.000408983
-1.48199e-05
-0.000711544
-0.00149256
-0.0017343
-4.18949e-05
-0.000491296
-0.000449
-0.00090878
-0.000757376
-0.000561289
-0.000844377
-0.00111701
-0.00114383
-0.000374776
-0.000347038
-0.000839557
0.000274837
0.000454828
-0.000733474
-0.000648968
-0.000159087
-0.000747368
-0.00162292
-0.00191571
-5.35431e-05
-0.000473572
-0.000456713
-0.000887194
-0.000751425
-0.00057653
-0.000853682
-0.00107747
-0.00112373
-0.000419606
-0.000347025
-0.000866172
0.000111586
0.000394091
-0.000782849
-0.000879541
-0.000330472
-0.000779007
-0.00171798
-0.00209135
-6.65713e-05
-0.000455768
-0.000460346
-0.000866406
-0.000747316
-0.000589619
-0.000861926
-0.00104257
-0.0011038
-0.000469179
-0.000357959
-0.000889301
-5.32929e-05
0.000314769
-0.000814976
-0.0010929
-0.000528036
-0.000816333
-0.00177833
-0.00225184
-8.07732e-05
-0.000438656
-0.000459465
-0.000844868
-0.000745977
-0.000601788
-0.000868672
-0.00102146
-0.00108568
-0.000521756
-0.000379587
-0.000909104
-0.000216792
0.000216383
-0.000834336
-0.00128257
-0.000748065
-0.000870107
-0.00180738
-0.00238767
-9.58705e-05
-0.000422896
-0.000454193
-0.000821061
-0.000747402
-0.000615361
-0.000874525
-0.00100865
-0.00107031
-0.000575372
-0.000410473
-0.000926374
-0.000375645
9.92563e-05
-0.000847659
-0.00144357
-0.00098256
-0.000950246
-0.00181347
-0.00249013
-0.00011124
-0.000409058
-0.000445645
-0.000793729
-0.000750718
-0.000632391
-0.00088081
-0.000995394
-0.00105846
-0.000628094
-0.00044851
-0.000942055
-0.000527455
-3.51628e-05
-0.000862091
-0.00157399
-0.00122134
-0.00106239
-0.001809
-0.0025544
-0.000125873
-0.000397539
-0.000435816
-0.000761926
-0.000754208
-0.000653993
-0.000889035
-0.00098167
-0.00105156
-0.000678968
-0.000490641
-0.000955775
-0.000671092
-0.000185097
-0.000883826
-0.00167487
-0.00145424
-0.00120646
-0.00180818
-0.00258198
-0.000139168
-0.000388136
-0.000426581
-0.000725842
-0.000755753
-0.000679871
-0.000900966
-0.000976519
-0.00105336
-0.000728169
-0.000533243
-0.000966927
-0.000805142
-0.000347835
-0.000917715
-0.00174926
-0.00167224
-0.00137733
-0.00182295
-0.00258019
-0.000150904
-0.000379923
-0.000418787
-0.000686624
-0.000754063
-0.000710931
-0.000917926
-0.00103208
-0.00106567
-0.000775999
-0.000575616
-0.000976742
-0.000926693
-0.000518708
-0.000967939
-0.00180265
-0.00186812
-0.00156705
-0.00186116
-0.0025605
-0.000160756
-0.00037227
-0.000413058
-0.000646736
-0.00074766
-0.000748442
-0.000941487
-0.00108643
-0.00107948
-0.00082367
-0.000621082
-0.000987315
-0.00103443
-0.000692656
-0.00103717
-0.00184183
-0.00203662
-0.00176659
-0.00192697
-0.00253613
-0.000168534
-0.000364286
-0.000410893
-0.000611848
-0.000740767
-0.000785819
-0.000965319
-0.00106794
-0.00109349
-0.000874303
-0.000674321
-0.00100021
-0.00112782
-0.000864603
-0.00112524
-0.00187464
-0.00217571
-0.00196642
-0.00202021
-0.00251819
-0.000174356
-0.000355692
-0.000413323
-0.000583888
-0.000729131
-0.00081919
-0.00099066
-0.00107525
-0.00110816
-0.000929617
-0.00073721
-0.0010184
-0.00120745
-0.00102899
-0.00122889
-0.00190787
-0.00228673
-0.00215712
-0.002137
-0.0025149
-0.000178536
-0.00034635
-0.000419188
-0.000563729
-0.000714491
-0.000847594
-0.00101796
-0.00108691
-0.00112349
-0.000986668
-0.000807735
-0.00104468
-0.00127615
-0.00118144
-0.0013436
-0.00194681
-0.00237437
-0.00233137
-0.00227094
-0.00253162
-0.000181485
-0.00033585
-0.000426838
-0.00055292
-0.000699993
-0.000869677
-0.00104684
-0.00110366
-0.00113925
-0.00104135
-0.000883488
-0.00108119
-0.00133735
-0.00131988
-0.00146456
-0.00199491
-0.00244469
-0.0024846
-0.00241367
-0.00257023
-0.000183515
-0.000324173
-0.000434679
-0.000552081
-0.000689447
-0.000885189
-0.00107503
-0.00112544
-0.001156
-0.00109255
-0.000964003
-0.00112789
-0.00139514
-0.00144473
-0.00158661
-0.00205288
-0.00250426
-0.00261556
-0.0025565
-0.00262854
-0.000184817
-0.000311373
-0.000441983
-0.000561321
-0.000685157
-0.000894021
-0.00109984
-0.00115207
-0.00117617
-0.00114044
-0.00104365
-0.00118316
-0.00145232
-0.00155781
-0.00170627
-0.00211945
-0.00255864
-0.00272541
-0.00269215
-0.00270153
-0.000185586
-0.000298122
-0.000448328
-0.000579183
-0.000688177
-0.000897558
-0.00112022
-0.00118288
-0.00120126
-0.00118565
-0.00112043
-0.00124511
-0.0015101
-0.00166042
-0.00182151
-0.00219194
-0.00261117
-0.00281718
-0.0028163
-0.00278412
-0.000186214
-0.00028583
-0.000452911
-0.000602023
-0.0006996
-0.000899327
-0.00113559
-0.00121571
-0.00123247
-0.00122956
-0.00119315
-0.00131074
-0.00156945
-0.00175446
-0.00193096
-0.00226786
-0.00266378
-0.00289512
-0.00292655
-0.00287121
-0.000187332
-0.000276076
-0.000454581
-0.000625695
-0.000719795
-0.00090324
-0.00114605
-0.00124833
-0.00126962
-0.00127549
-0.00126215
-0.00137658
-0.00162985
-0.00184211
-0.00203412
-0.00234527
-0.00271712
-0.00296252
-0.00302135
-0.00295732
-0.00018919
-0.000269536
-0.000453733
-0.000647881
-0.000748125
-0.000912462
-0.00115279
-0.0012789
-0.00131153
-0.00132427
-0.00132868
-0.00144151
-0.00168888
-0.00192333
-0.00213114
-0.00242293
-0.00277161
-0.00302262
-0.00310168
-0.00303783
-0.000191799
-0.000266382
-0.000451538
-0.000667327
-0.000782489
-0.000929037
-0.00115819
-0.00130562
-0.00135561
-0.00137605
-0.00139435
-0.00150639
-0.00174595
-0.00199701
-0.00222178
-0.00249963
-0.00282666
-0.00307801
-0.00317031
-0.00310928
-0.000195129
-0.000266649
-0.000450377
-0.000683508
-0.000820104
-0.000953984
-0.00116538
-0.00132787
-0.00139895
-0.00143066
-0.00146005
-0.00157111
-0.00180213
-0.00206339
-0.00230478
-0.00257418
-0.00288078
-0.0031296
-0.00323039
-0.00317065
-0.000199182
-0.000270268
-0.000451955
-0.000695745
-0.000858
-0.00098701
-0.00117717
-0.0013465
-0.00143917
-0.00148655
-0.00152674
-0.00163548
-0.00185724
-0.00212393
-0.00237912
-0.00264529
-0.00293337
-0.00317697
-0.00328424
-0.00322359
-0.000204201
-0.000277032
-0.000457078
-0.000707003
-0.000894054
-0.00102647
-0.00119575
-0.00136367
-0.00147499
-0.00154053
-0.00159382
-0.00170091
-0.00191091
-0.00217879
-0.00244457
-0.00271116
-0.00298484
-0.00322008
-0.00333229
-0.00327029
-0.000210519
-0.000286451
-0.000466413
-0.000718357
-0.000927279
-0.00106974
-0.00122206
-0.00138219
-0.00150675
-0.00159008
-0.00165848
-0.00176757
-0.0019648
-0.00222799
-0.00250145
-0.00277026
-0.00303439
-0.00325978
-0.00337398
-0.00331188
-0.000218605
-0.000298213
-0.000479993
-0.00073178
-0.000957755
-0.00111411
-0.00125578
-0.00140439
-0.00153534
-0.00163487
-0.00171827
-0.00183229
-0.00202011
-0.00227375
-0.00255032
-0.00282186
-0.00307966
-0.00329641
-0.00340965
-0.00334833
-0.00022901
-0.000312236
-0.000497451
-0.000748502
-0.000986319
-0.00115772
-0.00129531
-0.00143183
-0.00156248
-0.00167464
-0.00177291
-0.00189256
-0.00207413
-0.00231809
-0.00259232
-0.00286568
-0.00311914
-0.00332896
-0.00344014
-0.00337932
-0.000242223
-0.000328636
-0.000518349
-0.000769147
-0.00101454
-0.00119977
-0.00133825
-0.00146474
-0.00159061
-0.00170938
-0.00182132
-0.0019482
-0.00212427
-0.00235981
-0.0026288
-0.00290154
-0.00315248
-0.00335613
-0.00346511
-0.00340448
-0.000258714
-0.000347735
-0.000542318
-0.000793989
-0.00104393
-0.00124035
-0.00138253
-0.00150198
-0.00162138
-0.00174125
-0.00186222
-0.00199768
-0.00217049
-0.00239685
-0.00265956
-0.00292912
-0.00317861
-0.00337731
-0.00348342
-0.00342347
-0.000278923
-0.000370048
-0.000569136
-0.000822811
-0.00107565
-0.00128015
-0.0014271
-0.00154217
-0.00165444
-0.0017724
-0.00189685
-0.00203819
-0.00221116
-0.00242869
-0.0026831
-0.00294785
-0.00319535
-0.00339115
-0.00349406
-0.00343498
-0.000303277
-0.000396061
-0.00059898
-0.000855359
-0.00111038
-0.00132025
-0.00147172
-0.00158444
-0.00168931
-0.00180242
-0.00192689
-0.00206967
-0.00224256
-0.00245366
-0.0026983
-0.00295672
-0.00320113
-0.00339568
-0.00349648
-0.00343856
-0.000332132
-0.000426226
-0.000632174
-0.000891617
-0.00114867
-0.00136172
-0.00151645
-0.0016279
-0.00172617
-0.00183127
-0.00195196
-0.00209341
-0.00226312
-0.00246829
-0.00270364
-0.00295401
-0.00319437
-0.00338813
-0.00348909
-0.00343315
-0.000365796
-0.000460959
-0.000669297
-0.000931606
-0.00119058
-0.00140569
-0.00156233
-0.0016719
-0.00176432
-0.00186013
-0.00197165
-0.00210857
-0.0022729
-0.00246995
-0.00269678
-0.00293826
-0.00317291
-0.00336516
-0.00346749
-0.0034148
-0.000404714
-0.000500681
-0.000710946
-0.00097577
-0.00123628
-0.00145257
-0.00161032
-0.00171739
-0.00180321
-0.00188955
-0.00198779
-0.00211385
-0.00226959
-0.00245507
-0.00267256
-0.00290632
-0.00313453
-0.00332501
-0.00342931
-0.00338087
-0.000449374
-0.000545781
-0.000757477
-0.00102448
-0.00128652
-0.00150339
-0.00166064
-0.00176501
-0.00184422
-0.0019199
-0.00200343
-0.002112
-0.0022512
-0.0024187
-0.00262015
-0.00284565
-0.00306938
-0.00326082
-0.00337224
-0.00333396
-0.000500383
-0.000596435
-0.000809589
-0.00107789
-0.00134114
-0.00155928
-0.00171538
-0.0018158
-0.00188855
-0.00195203
-0.00201979
-0.00210856
-0.00222147
-0.00236138
-0.00253311
-0.00273469
-0.00294989
-0.00314507
-0.00327327
-0.00326047
-0.000558778
-0.000654725
-0.000867006
-0.0011357
-0.00140086
-0.0016202
-0.00177629
-0.00187286
-0.00193795
-0.00198787
-0.00203517
-0.00210213
-0.00218575
-0.00228908
-0.00241825
-0.00257411
-0.00275441
-0.00292964
-0.00305868
-0.00307548
-0.000624591
-0.000719789
-0.000930563
-0.00119977
-0.00146664
-0.00168704
-0.00184487
-0.00194074
-0.00199956
-0.00203379
-0.00205296
-0.00208407
-0.00213115
-0.00219374
-0.00228414
-0.00240258
-0.00254464
-0.00267489
-0.00274868
-0.00271301
-0.000696498
-0.000790107
-0.00100268
-0.00127227
-0.00153703
-0.00175784
-0.0019204
-0.00202495
-0.00209124
-0.00211934
-0.00209906
-0.00204927
-0.00198156
-0.00191224
-0.00189036
-0.00195355
-0.00212014
-0.0023715
-0.00263335
-0.00279783
-0.000778643
-0.000873281
-0.00108372
-0.00134736
-0.00160509
-0.00182458
-0.00199349
-0.00211647
-0.00221227
-0.00229365
-0.00235257
-0.00237436
-0.00227199
-0.00198184
-0.00162917
-0.00132759
-0.00106659
-0.000826942
-0.000623926
-0.000526088
-0.000875505
-0.000970132
-0.00117443
-0.00142771
-0.00167248
-0.00188252
-0.00205359
-0.00218888
-0.00228942
-0.00230071
-0.00215801
-0.00190948
-0.00164547
-0.00144025
-0.00131691
-0.00126316
-0.00125099
-0.00124033
-0.0012335
-0.0012658
-0.000990003
-0.00106491
-0.00126474
-0.00151977
-0.00177766
-0.00200792
-0.00216677
-0.0021995
-0.00212244
-0.00200622
-0.00189458
-0.00181748
-0.00176048
-0.00168571
-0.00154919
-0.00133002
-0.00105385
-0.000752124
-0.000483951
-0.000332438
-0.00115178
-0.00120995
-0.00132289
-0.00147913
-0.00165249
-0.00181425
-0.00193372
-0.00198611
-0.00198142
-0.00194289
-0.00187456
-0.00179756
-0.00172367
-0.00166183
-0.00166868
-0.00176934
-0.00197003
-0.00225228
-0.00254946
-0.00279701
-0.0013188
-0.00138924
-0.00143568
-0.00150854
-0.00163242
-0.00178446
-0.00192526
-0.00201876
-0.00204548
-0.00203135
-0.00197427
-0.00187055
-0.00176335
-0.00162968
-0.00144894
-0.00122389
-0.000968888
-0.000720861
-0.000538053
-0.000487844
-0.00141749
-0.00148761
-0.00153369
-0.00157573
-0.00164819
-0.00175017
-0.00184145
-0.00189873
-0.00190613
-0.00188977
-0.00187612
-0.00183269
-0.00178375
-0.00173602
-0.00166995
-0.00159315
-0.00150992
-0.00143861
-0.00140424
-0.00146275
0.00622127
0.0031474
-0.00365424
-0.00842799
-0.00918244
-0.00785312
-0.0062582
-0.00503564
-0.00433644
-0.00413272
-0.004219
-0.00425685
-0.00405419
-0.00372048
-0.00342637
-0.0032198
-0.00311275
-0.00304826
-0.00286752
-0.00254808
-0.00224347
-0.00203451
-0.00188136
-0.00172107
-0.00150763
-0.00126883
-0.00108022
-0.000950304
-0.000820073
-0.000657113
-0.000488958
-0.000345857
-0.000206358
-2.38432e-05
0.000200198
0.000423329
0.000632433
0.000857861
0.00110876
0.0013465
0.00155084
0.00174938
0.00196034
0.00216383
0.00236198
0.0025925
0.00285032
0.00310649
0.00337082
0.00365724
0.00393737
0.00418254
0.00443004
0.0047049
0.00497077
0.005241
0.00555057
0.00586858
0.00617956
0.00650097
0.0068231
0.00713949
0.00746172
0.00779487
0.00813823
0.00849165
0.00885424
0.0092263
0.00960134
0.00997982
0.0103651
0.0107621
0.011168
0.0115829
0.0120026
0.0124312
0.0128686
0.0133197
0.0137775
0.0142451
0.0147183
0.0152047
0.0157011
0.0162106
0.0167266
0.0172547
0.0177922
0.0183416
0.0189024
0.0194742
0.0200579
0.0206495
0.0212543
0.0218712
0.0224982
0.0231381
0.0238046
0.0244596
0.0252297
0.0260188
0.00565794
0.00306066
-0.00354594
-0.00831152
-0.00911592
-0.00781751
-0.00623308
-0.00501578
-0.00432069
-0.0041203
-0.00420959
-0.00424989
-0.00404873
-0.00371574
-0.00342196
-0.00321555
-0.00310876
-0.00304486
-0.00286464
-0.00254531
-0.00224071
-0.00203192
-0.00187903
-0.00171903
-0.00150581
-0.00126708
-0.00107852
-0.000948759
-0.000818697
-0.000655838
-0.000487728
-0.000344688
-0.000205301
-2.28838e-05
0.000201118
0.000424222
0.000633261
0.000858615
0.00110949
0.00134723
0.00155153
0.00175002
0.00196096
0.00216443
0.00236254
0.00259301
0.00285083
0.00310698
0.00337127
0.00365768
0.00393781
0.00418296
0.00443042
0.00470528
0.00497114
0.00524134
0.00555089
0.00586889
0.00617986
0.00650126
0.00682338
0.00713977
0.00746198
0.00779512
0.00813847
0.00849188
0.00885446
0.00922651
0.00960155
0.00998002
0.0103653
0.0107623
0.0111681
0.0115831
0.0120028
0.0124314
0.0128687
0.0133199
0.0137776
0.0142452
0.0147184
0.0152048
0.0157012
0.0162107
0.0167267
0.0172548
0.0177923
0.0183417
0.0189026
0.0194743
0.020058
0.0206496
0.0212544
0.0218712
0.0224983
0.0231381
0.0238047
0.0244596
0.0252298
0.026019
0.00512534
0.00303785
-0.00329178
-0.00807093
-0.00899734
-0.00777271
-0.00621186
-0.00499934
-0.00430599
-0.0041072
-0.00419777
-0.00423965
-0.00404061
-0.00370981
-0.00341765
-0.0032119
-0.00310527
-0.00304169
-0.00286185
-0.00254269
-0.00223822
-0.00202957
-0.00187685
-0.00171708
-0.00150407
-0.00126542
-0.00107696
-0.000947354
-0.000817444
-0.000654676
-0.000486625
-0.000343668
-0.000204392
-2.20465e-05
0.000201941
0.00042502
0.00063399
0.00085928
0.00111015
0.00134789
0.00155215
0.00175058
0.0019615
0.00216496
0.00236301
0.00259345
0.00285126
0.00310739
0.00337166
0.00365806
0.00393821
0.00418333
0.00443075
0.0047056
0.00497146
0.00524162
0.00555117
0.00586918
0.00618013
0.00650152
0.00682363
0.00714
0.00746221
0.00779534
0.00813867
0.00849208
0.00885465
0.0092267
0.00960173
0.00998019
0.0103655
0.0107624
0.0111683
0.0115833
0.0120029
0.0124315
0.0128688
0.01332
0.0137777
0.0142453
0.0147185
0.0152049
0.0157014
0.0162108
0.0167268
0.0172549
0.0177924
0.0183418
0.0189026
0.0194744
0.020058
0.0206497
0.0212545
0.0218713
0.0224983
0.0231382
0.0238047
0.0244597
0.0252298
0.0260193
0.00463999
0.0030242
-0.00297698
-0.00776206
-0.00883722
-0.00771525
-0.00618739
-0.00497968
-0.00428821
-0.004092
-0.00418284
-0.00422403
-0.00402648
-0.00369957
-0.0034114
-0.00320771
-0.00310126
-0.00303744
-0.00285794
-0.00253958
-0.00223575
-0.00202719
-0.00187427
-0.00171458
-0.00150188
-0.0012635
-0.00107517
-0.000945661
-0.0008159
-0.000653321
-0.000485425
-0.000342576
-0.000203396
-2.11182e-05
0.000202843
0.000425887
0.000634788
0.000860014
0.00111087
0.00134861
0.00155281
0.00175118
0.00196207
0.00216549
0.00236349
0.0025939
0.00285172
0.00310783
0.00337207
0.00365848
0.00393864
0.00418372
0.00443109
0.00470595
0.00497178
0.0052419
0.00555145
0.00586947
0.0061804
0.00650178
0.0068239
0.00714025
0.00746244
0.00779556
0.00813888
0.00849228
0.00885484
0.00922689
0.00960191
0.00998037
0.0103656
0.0107626
0.0111684
0.0115834
0.0120031
0.0124316
0.012869
0.0133201
0.0137779
0.0142455
0.0147186
0.0152051
0.0157015
0.0162109
0.0167269
0.017255
0.0177925
0.0183419
0.0189027
0.0194745
0.0200581
0.0206497
0.0212545
0.0218714
0.0224984
0.0231382
0.0238048
0.0244597
0.0252298
0.0260198
0.00415277
0.00296451
-0.00265594
-0.00742758
-0.00865966
-0.00765243
-0.0061616
-0.00495729
-0.00426743
-0.00407474
-0.00416464
-0.00420249
-0.00400545
-0.00368379
-0.00340193
-0.00320201
-0.00309579
-0.00303088
-0.0028517
-0.00253532
-0.0022332
-0.00202478
-0.0018711
-0.00171115
-0.001499
-0.00126124
-0.001073
-0.000943305
-0.000813623
-0.000651454
-0.000483941
-0.000341239
-0.000202119
-1.99471e-05
0.00020391
0.000426904
0.000635769
0.000860936
0.00111175
0.00134945
0.0015536
0.00175188
0.00196271
0.0021661
0.00236404
0.00259442
0.00285223
0.00310831
0.00337254
0.00365895
0.00393911
0.00418415
0.00443147
0.00470633
0.00497214
0.00524221
0.00555177
0.00586979
0.0061807
0.00650208
0.00682419
0.00714051
0.00746269
0.0077958
0.00813911
0.0084925
0.00885506
0.0092271
0.00960212
0.00998056
0.0103658
0.0107627
0.0111686
0.0115836
0.0120032
0.0124318
0.0128691
0.0133203
0.013778
0.0142456
0.0147187
0.0152052
0.0157016
0.016211
0.016727
0.0172551
0.0177926
0.018342
0.0189028
0.0194746
0.0200582
0.0206498
0.0212546
0.0218715
0.0224985
0.0231383
0.0238048
0.0244598
0.0252298
0.0260205
0.00365348
0.00284957
-0.00233536
-0.00707195
-0.0084675
-0.00758552
-0.00613547
-0.00493341
-0.00424436
-0.00405577
-0.00414447
-0.00417746
-0.00397993
-0.00366394
-0.00338963
-0.00319444
-0.00308821
-0.0030212
-0.00284232
-0.00252934
-0.00223035
-0.00202231
-0.00186727
-0.00170665
-0.00149541
-0.00125882
-0.00107062
-0.000940196
-0.000810297
-0.00064876
-0.000481941
-0.00033944
-0.000200337
-1.83793e-05
0.00020519
0.000428084
0.000636979
0.000862105
0.00111284
0.0013505
0.0015546
0.00175277
0.00196348
0.0021668
0.0023647
0.00259504
0.00285281
0.00310888
0.00337311
0.00365952
0.00393966
0.00418465
0.00443192
0.00470676
0.00497254
0.00524257
0.00555213
0.00587016
0.00618104
0.00650241
0.00682451
0.00714081
0.00746297
0.00779607
0.00813937
0.00849275
0.0088553
0.00922733
0.00960234
0.00998078
0.010366
0.0107629
0.0111688
0.0115837
0.0120034
0.012432
0.0128693
0.0133204
0.0137781
0.0142457
0.0147189
0.0152053
0.0157017
0.0162111
0.0167272
0.0172552
0.0177927
0.0183421
0.0189029
0.0194747
0.0200583
0.0206499
0.0212547
0.0218716
0.0224986
0.0231384
0.0238049
0.0244598
0.0252298
0.0260213
0.00315603
0.00269081
-0.00201338
-0.00669351
-0.00825914
-0.00751378
-0.00610936
-0.00490886
-0.00421916
-0.00403491
-0.00412298
-0.00415096
-0.00395265
-0.00364244
-0.00337599
-0.00318553
-0.00307854
-0.00300837
-0.00282978
-0.00252145
-0.00222688
-0.00201958
-0.00186269
-0.00170106
-0.00149115
-0.00125643
-0.00106834
-0.000936571
-0.00080598
-0.000645133
-0.000479226
-0.000336912
-0.000197755
-1.61863e-05
0.000206794
0.00042946
0.000638427
0.000863514
0.00111411
0.00135178
0.00155592
0.00175396
0.00196445
0.00216766
0.00236551
0.00259577
0.00285347
0.00310955
0.00337381
0.0036602
0.0039403
0.00418525
0.00443246
0.00470726
0.004973
0.005243
0.00555256
0.00587058
0.00618145
0.00650281
0.00682489
0.00714116
0.0074633
0.00779638
0.00813967
0.00849303
0.00885558
0.0092276
0.0096026
0.00998102
0.0103663
0.0107632
0.011169
0.011584
0.0120036
0.0124321
0.0128694
0.0133206
0.0137783
0.0142459
0.014719
0.0152054
0.0157018
0.0162113
0.0167273
0.0172553
0.0177928
0.0183422
0.018903
0.0194748
0.0200584
0.02065
0.0212548
0.0218717
0.0224987
0.0231385
0.023805
0.0244598
0.0252297
0.0260222
0.00267709
0.00249438
-0.00169588
-0.00629514
-0.00803429
-0.00743717
-0.00608398
-0.00488443
-0.00419204
-0.004012
-0.0041003
-0.00412365
-0.00392457
-0.00362025
-0.0033618
-0.00317588
-0.00306739
-0.00299318
-0.00281471
-0.00251182
-0.00222262
-0.00201638
-0.0018574
-0.00169452
-0.00148628
-0.00125409
-0.0010663
-0.000932792
-0.000801077
-0.000640832
-0.000475835
-0.000333518
-0.000194145
-1.31364e-05
0.000208899
0.000431145
0.000640158
0.000865122
0.00111547
0.00135319
0.00155755
0.00175551
0.00196572
0.00216881
0.00236661
0.00259667
0.00285419
0.0031103
0.00337465
0.003661
0.00394106
0.00418601
0.00443316
0.00470785
0.00497354
0.00524351
0.00555306
0.00587106
0.00618192
0.00650328
0.00682533
0.00714156
0.00746368
0.00779674
0.00814001
0.00849337
0.0088559
0.00922792
0.00960291
0.00998131
0.0103665
0.0107634
0.0111693
0.0115842
0.0120038
0.0124324
0.0128696
0.0133208
0.0137785
0.0142461
0.0147192
0.0152056
0.015702
0.0162114
0.0167274
0.0172554
0.0177929
0.0183424
0.0189032
0.0194749
0.0200585
0.0206501
0.0212549
0.0218718
0.0224988
0.0231386
0.023805
0.0244598
0.0252296
0.0260234
0.00222828
0.00226229
-0.00139421
-0.00588191
-0.00779244
-0.00735473
-0.00605921
-0.00486045
-0.00416305
-0.00398681
-0.00407629
-0.00409554
-0.00389564
-0.00359722
-0.00334699
-0.00316572
-0.00305539
-0.00297652
-0.00279791
-0.0025008
-0.00221753
-0.00201264
-0.00185148
-0.00168724
-0.00148087
-0.00125164
-0.00106441
-0.000929063
-0.000796034
-0.000636302
-0.000472051
-0.000329361
-0.000189486
-9.13032e-06
0.000211648
0.000433285
0.000642276
0.000866939
0.00111681
0.00135458
0.00155935
0.00175739
0.00196734
0.00217035
0.00236812
0.00259786
0.00285505
0.00311114
0.00337559
0.00366189
0.00394193
0.00418696
0.00443407
0.0047086
0.00497419
0.00524414
0.00555364
0.0058716
0.00618248
0.00650385
0.00682585
0.00714205
0.00746414
0.00779717
0.00814042
0.00849376
0.00885629
0.00922829
0.00960326
0.00998164
0.0103668
0.0107637
0.0111695
0.0115845