/*--------------------------------*- C++ -*----------------------------------*\
| =========                 |                                                 |
| \\      /  F ield         | OpenFOAM: The Open Source CFD Toolbox           |
|  \\    /   O peration     | Version:  3.0.1                                 |
|   \\  /    A nd           | Web:      www.OpenFOAM.org                      |
|    \\/     M anipulation  |                                                 |
\*---------------------------------------------------------------------------*/
FoamFile
{
    version     2.0;
    format      ascii;
    class       surfaceScalarField;
    location    "3";
    object      phi;
}
// * * * * * * * * * * * * * * * * * * * * * * * * * * * * * * * * * * * * * //

dimensions      [0 3 -1 0 0 0 0];

internalField   nonuniform List<scalar> 
19000
(
1.17048e-06
1.72278e-07
1.15229e-06
5.35272e-08
1.15001e-06
-2.39309e-07
1.19383e-06
-7.23958e-07
1.2161e-06
5.2944e-07
1.12994e-06
3.32931e-07
1.12021e-06
6.22156e-07
1.12668e-06
2.53818e-08
1.12176e-06
-7.16356e-07
1.16422e-06
-6.81809e-07
1.18122e-06
-5.01479e-07
1.17383e-06
-5.73661e-07
1.19744e-06
2.29193e-07
1.16005e-06
-2.62167e-07
1.17382e-06
6.55665e-07
1.12587e-06
1.8445e-07
1.13388e-06
5.83261e-07
1.08943e-06
1.62637e-07
1.09717e-06
3.62934e-07
1.72017e-07
1.05237e-06
1.22401e-06
1.72528e-07
1.20852e-06
6.90186e-08
1.20509e-06
-2.35884e-07
1.24783e-06
-7.66697e-07
1.26835e-06
5.0892e-07
1.18976e-06
4.11521e-07
1.16913e-06
6.42791e-07
1.18548e-06
9.02712e-09
1.18096e-06
-7.11833e-07
1.2172e-06
-7.18052e-07
1.23443e-06
-5.18705e-07
1.22924e-06
-5.68477e-07
1.24845e-06
2.09985e-07
1.21853e-06
-2.32243e-07
1.21671e-06
6.57482e-07
1.18991e-06
2.11252e-07
1.17076e-06
6.02404e-07
1.15817e-06
1.75231e-07
1.1314e-06
3.89702e-07
1.63242e-07
1.14018e-06
1.27919e-06
1.76117e-07
1.26844e-06
7.97733e-08
1.26337e-06
-2.30818e-07
1.3017e-06
-8.05019e-07
1.32029e-06
4.90328e-07
1.25711e-06
4.74695e-07
1.22694e-06
6.72961e-07
1.24871e-06
-1.27417e-08
1.24406e-06
-7.07183e-07
1.27255e-06
-7.46542e-07
1.28983e-06
-5.35982e-07
1.28847e-06
-5.67121e-07
1.30286e-06
1.95596e-07
1.28043e-06
-2.09808e-07
1.27151e-06
6.66403e-07
1.2539e-06
2.28865e-07
1.23442e-06
6.21882e-07
1.225e-06
1.84645e-07
1.21235e-06
4.02355e-07
1.69571e-07
1.20602e-06
1.33734e-06
1.82884e-07
1.3321e-06
8.50124e-08
1.32548e-06
-2.24199e-07
1.35678e-06
-8.36322e-07
1.37378e-06
4.73331e-07
1.32868e-06
5.19795e-07
1.29569e-06
7.05952e-07
1.3161e-06
-3.3157e-08
1.3111e-06
-7.02178e-07
1.33082e-06
-7.66266e-07
1.34818e-06
-5.53341e-07
1.34997e-06
-5.68909e-07
1.36071e-06
1.8485e-07
1.34304e-06
-1.92131e-07
1.33446e-06
6.74976e-07
1.31826e-06
2.45068e-07
1.30723e-06
6.32912e-07
1.29453e-06
1.97345e-07
1.29401e-06
4.02872e-07
1.82765e-07
1.28082e-06
1.39981e-06
1.91432e-07
1.39923e-06
8.55871e-08
1.39183e-06
-2.16801e-07
1.41396e-06
-8.58448e-07
1.43022e-06
4.57072e-07
1.40207e-06
5.47944e-07
1.37337e-06
7.34649e-07
1.38773e-06
-4.75142e-08
1.38173e-06
-6.96175e-07
1.39295e-06
-7.77486e-07
1.40922e-06
-5.6961e-07
1.41285e-06
-5.72543e-07
1.42128e-06
1.76419e-07
1.40521e-06
-1.76063e-07
1.39948e-06
6.80713e-07
1.38324e-06
2.613e-07
1.37994e-06
6.36211e-07
1.36599e-06
2.113e-07
1.3716e-06
3.97259e-07
1.9749e-07
1.35688e-06
1.46741e-06
1.99701e-07
1.46975e-06
8.32433e-08
1.46235e-06
-2.09401e-07
1.47427e-06
-8.7037e-07
1.49013e-06
4.41216e-07
1.47628e-06
5.61788e-07
1.45617e-06
7.54763e-07
1.46378e-06
-5.51245e-08
1.45553e-06
-6.87925e-07
1.45946e-06
-7.81411e-07
1.47257e-06
-5.82724e-07
1.47662e-06
-5.76594e-07
1.48443e-06
1.68607e-07
1.46849e-06
-1.60117e-07
1.46571e-06
6.83487e-07
1.45057e-06
2.76443e-07
1.45368e-06
6.33102e-07
1.43998e-06
2.24996e-07
1.44987e-06
3.87368e-07
2.12652e-07
1.43471e-06
1.53999e-06
2.05926e-07
1.54367e-06
7.95628e-08
1.53651e-06
-2.02241e-07
1.5387e-06
-8.72556e-07
1.55372e-06
4.2619e-07
1.55135e-06
5.64165e-07
1.54092e-06
7.65192e-07
1.54362e-06
-5.78303e-08
1.53227e-06
-6.76576e-07
1.53014e-06
-7.7928e-07
1.53856e-06
-5.91144e-07
1.54159e-06
-5.79622e-07
1.55001e-06
1.6019e-07
1.5346e-06
-1.4471e-07
1.53521e-06
6.82876e-07
1.52209e-06
2.89561e-07
1.53101e-06
6.24181e-07
1.51767e-06
2.38343e-07
1.53094e-06
3.74096e-07
2.28122e-07
1.51547e-06
1.61672e-06
2.09339e-07
1.62084e-06
7.54416e-08
1.61369e-06
-1.95095e-07
1.60794e-06
-8.66807e-07
1.62147e-06
4.12667e-07
1.6278e-06
5.57832e-07
1.62626e-06
7.66732e-07
1.62626e-06
-5.78286e-08
1.61193e-06
-6.62247e-07
1.60477e-06
-7.72122e-07
1.60791e-06
-5.94279e-07
1.6088e-06
-5.80511e-07
1.61806e-06
1.50929e-07
1.6043e-06
-1.30954e-07
1.60941e-06
6.7777e-07
1.59851e-06
3.00453e-07
1.61271e-06
6.09987e-07
1.5992e-06
2.51854e-07
1.61472e-06
3.58575e-07
2.43733e-07
1.59911e-06
1.69673e-06
2.10183e-07
1.70097e-06
7.1202e-08
1.69357e-06
-1.87694e-07
1.68235e-06
-8.55591e-07
1.69404e-06
4.00983e-07
1.70641e-06
5.45455e-07
1.71219e-06
7.60954e-07
1.71096e-06
-5.65974e-08
1.69447e-06
-6.4576e-07
1.68332e-06
-7.60967e-07
1.68133e-06
-5.9229e-07
1.67942e-06
-5.78599e-07
1.68917e-06
1.4118e-07
1.67772e-06
-1.19512e-07
1.68834e-06
6.67159e-07
1.67937e-06
3.09417e-07
1.69811e-06
5.91247e-07
1.68395e-06
2.66014e-07
1.70048e-06
3.42042e-07
2.59061e-07
1.68516e-06
1.77969e-06
2.09214e-07
1.78397e-06
6.69218e-08
1.77628e-06
-1.8e-07
1.76192e-06
-8.41229e-07
1.77189e-06
3.91004e-07
1.78791e-06
5.29442e-07
1.79924e-06
7.49619e-07
1.79752e-06
-5.48713e-08
1.77986e-06
-6.28108e-07
1.76581e-06
-7.46909e-07
1.7594e-06
-5.85887e-07
1.75439e-06
-5.73589e-07
1.76416e-06
1.31411e-07
1.75489e-06
-1.10242e-07
1.7713e-06
6.50749e-07
1.76371e-06
3.17009e-07
1.78611e-06
5.6885e-07
1.77117e-06
2.80955e-07
1.78758e-06
3.25631e-07
2.73409e-07
1.77323e-06
1.86577e-06
2.07194e-07
1.87006e-06
6.26322e-08
1.86226e-06
-1.72206e-07
1.84639e-06
-8.25356e-07
1.85505e-06
3.82341e-07
1.87278e-06
5.11711e-07
1.88805e-06
7.34358e-07
1.88616e-06
-5.29847e-08
1.86817e-06
-6.10115e-07
1.85218e-06
-7.30928e-07
1.84245e-06
-5.76153e-07
1.83433e-06
-5.65466e-07
1.84376e-06
1.21976e-07
1.83589e-06
-1.02368e-07
1.85759e-06
6.29045e-07
1.85074e-06
3.23866e-07
1.87582e-06
5.43767e-07
1.8604e-06
2.96374e-07
1.87574e-06
3.10287e-07
2.85889e-07
1.86326e-06
1.95539e-06
2.04645e-07
1.95967e-06
5.83481e-08
1.95203e-06
-1.64565e-07
1.93547e-06
-8.08798e-07
1.94322e-06
3.74596e-07
1.96137e-06
4.93562e-07
1.97925e-06
7.16473e-07
1.9774e-06
-5.11314e-08
1.95963e-06
-5.92347e-07
1.94241e-06
-7.13708e-07
1.93055e-06
-5.64293e-07
1.91953e-06
-5.54441e-07
1.92847e-06
1.13036e-07
1.92093e-06
-9.483e-08
1.94687e-06
6.03107e-07
1.9402e-06
3.30531e-07
1.96698e-06
5.16986e-07
1.95174e-06
3.11618e-07
1.96523e-06
2.96794e-07
2.95558e-07
1.95556e-06
2.04899e-06
2.01841e-07
2.05329e-06
5.40517e-08
2.04598e-06
-1.57251e-07
2.02896e-06
-7.9178e-07
2.0361e-06
3.67452e-07
2.05394e-06
4.75721e-07
2.07354e-06
6.96874e-07
2.07185e-06
-4.94364e-08
2.05465e-06
-5.75152e-07
2.03654e-06
-6.95596e-07
2.02362e-06
-5.51373e-07
2.01005e-06
-5.40878e-07
2.01853e-06
1.0456e-07
2.01035e-06
-8.66501e-08
2.03925e-06
5.74207e-07
2.03246e-06
3.37319e-07
2.05998e-06
4.89468e-07
2.04574e-06
3.25861e-07
2.05672e-06
2.85809e-07
3.01603e-07
2.05068e-06
2.14695e-06
1.98896e-07
2.15129e-06
4.9705e-08
2.14436e-06
-1.50319e-07
2.1268e-06
-7.74218e-07
2.13361e-06
3.60646e-07
2.15085e-06
4.58479e-07
2.1716e-06
6.76125e-07
2.17009e-06
-4.79282e-08
2.15367e-06
-5.58729e-07
2.13474e-06
-6.76674e-07
2.12153e-06
-5.3816e-07
2.10585e-06
-5.25194e-07
2.11401e-06
9.63979e-08
2.10454e-06
-7.71786e-08
2.13521e-06
5.43533e-07
2.12826e-06
3.4427e-07
2.15562e-06
4.62112e-07
2.1432e-06
3.38277e-07
2.15122e-06
2.77791e-07
3.03584e-07
2.14924e-06
2.24954e-06
1.95843e-07
2.25396e-06
4.52821e-08
2.24738e-06
-1.43735e-07
2.22913e-06
-7.55966e-07
2.23585e-06
3.53926e-07
2.25245e-06
4.41877e-07
2.27404e-06
6.54533e-07
2.27263e-06
-4.6515e-08
2.25708e-06
-5.43182e-07
2.23729e-06
-6.56883e-07
2.22424e-06
-5.2511e-07
2.20684e-06
-5.07791e-07
2.21484e-06
8.83952e-08
2.20383e-06
-6.61673e-08
2.23531e-06
5.12057e-07
2.22841e-06
3.51166e-07
2.25479e-06
4.35737e-07
2.24491e-06
3.4815e-07
2.24996e-06
2.72746e-07
3.01725e-07
2.25182e-06
2.35704e-06
1.9268e-07
2.36153e-06
4.07905e-08
2.35522e-06
-1.37429e-07
2.33619e-06
-7.36929e-07
2.34307e-06
3.47046e-07
2.35908e-06
4.25858e-07
2.38139e-06
6.32228e-07
2.37988e-06
-4.50086e-08
2.36525e-06
-5.28549e-07
2.3445e-06
-6.36127e-07
2.33181e-06
-5.12425e-07
2.31305e-06
-4.89029e-07
2.32098e-06
8.04689e-08
2.30852e-06
-5.37093e-08
2.34005e-06
4.80524e-07
2.3336e-06
3.57611e-07
2.35831e-06
4.11031e-07
2.3515e-06
3.54957e-07
2.35393e-06
2.70321e-07
2.96767e-07
2.35889e-06
2.46969e-06
1.89388e-07
2.47421e-06
3.6272e-08
2.46812e-06
-1.31339e-07
2.44827e-06
-7.17083e-07
2.45553e-06
3.39787e-07
2.47102e-06
4.10372e-07
2.49402e-06
6.0922e-07
2.4922e-06
-4.31808e-08
2.47846e-06
-5.14816e-07
2.45667e-06
-6.14337e-07
2.44438e-06
-5.00138e-07
2.4246e-06
-4.69249e-07
2.43244e-06
7.26353e-08
2.41888e-06
-4.01534e-08
2.44989e-06
4.4952e-07
2.44437e-06
3.63127e-07
2.4669e-06
3.88499e-07
2.46341e-06
3.58451e-07
2.46371e-06
2.70018e-07
2.89623e-07
2.47086e-06
2.58774e-06
1.85945e-07
2.59222e-06
3.17915e-08
2.58632e-06
-1.25441e-07
2.56569e-06
-6.96451e-07
2.5735e-06
3.3197e-07
2.58846e-06
3.95417e-07
2.61223e-06
5.85453e-07
2.60986e-06
-4.08159e-08
2.59698e-06
-5.01936e-07
2.57415e-06
-5.91503e-07
2.56217e-06
-4.8816e-07
2.54173e-06
-4.48805e-07
2.54935e-06
6.50056e-08
2.53521e-06
-2.60094e-08
2.5652e-06
4.19526e-07
2.56109e-06
3.67244e-07
2.58115e-06
3.68432e-07
2.58089e-06
3.58713e-07
2.57966e-06
2.71251e-07
2.81197e-07
2.58809e-06
2.71145e-06
1.82328e-07
2.71581e-06
2.74265e-08
2.71012e-06
-1.19749e-07
2.68873e-06
-6.7506e-07
2.69724e-06
3.23455e-07
2.71162e-06
3.81044e-07
2.73623e-06
5.60841e-07
2.73316e-06
-3.77496e-08
2.72106e-06
-4.89839e-07
2.69725e-06
-5.6769e-07
2.6854e-06
-4.76313e-07
2.66467e-06
-4.28073e-07
2.67192e-06
5.77542e-08
2.65775e-06
-1.1834e-08
2.68634e-06
3.90931e-07
2.68398e-06
3.69604e-07
2.70153e-06
3.50887e-07
2.70415e-06
3.56095e-07
2.70201e-06
2.73392e-07
2.723e-07
2.7109e-06
2.84108e-06
1.78512e-07
2.84525e-06
2.32602e-08
2.83982e-06
-1.14315e-07
2.81768e-06
-6.5292e-07
2.827e-06
3.1413e-07
2.84071e-06
3.67338e-07
2.86623e-06
5.35317e-07
2.86237e-06
-3.38861e-08
2.85096e-06
-4.78432e-07
2.82631e-06
-5.43043e-07
2.81436e-06
-4.6436e-07
2.79373e-06
-4.07446e-07
2.80038e-06
5.11099e-08
2.78669e-06
1.85329e-09
2.8136e-06
3.64017e-07
2.81318e-06
3.70025e-07
2.82834e-06
3.35731e-07
2.83338e-06
3.51059e-07
2.83087e-06
2.75894e-07
2.63555e-07
2.83962e-06
2.97693e-06
1.74478e-07
2.98081e-06
1.93814e-08
2.97572e-06
-1.09223e-07
2.95281e-06
-6.30009e-07
2.96304e-06
3.03893e-07
2.97599e-06
3.5439e-07
3.00245e-06
5.08857e-07
2.99777e-06
-2.92021e-08
2.98693e-06
-4.67592e-07
2.96167e-06
-5.17782e-07
2.94931e-06
-4.52006e-07
2.92919e-06
-3.87324e-07
2.93499e-06
4.53106e-08
2.92217e-06
1.46737e-08
2.94728e-06
3.38903e-07
2.94876e-06
3.68552e-07
2.96178e-06
3.22706e-07
2.96881e-06
3.44031e-07
2.96636e-06
2.78342e-07
2.55396e-07
2.97452e-06
3.11928e-06
1.70207e-07
3.12277e-06
1.58853e-08
3.11813e-06
-1.04582e-07
3.09441e-06
-6.06284e-07
3.10564e-06
2.92656e-07
3.11776e-06
3.42274e-07
3.14512e-06
4.81494e-07
3.13967e-06
-2.37461e-08
3.12923e-06
-4.57157e-07
3.10365e-06
-4.92202e-07
3.09057e-06
-4.38927e-07
3.07131e-06
-3.68057e-07
3.07608e-06
4.05353e-08
3.06432e-06
2.64318e-08
3.08766e-06
3.15565e-07
3.09083e-06
3.65384e-07
3.10199e-06
3.11544e-07
3.11071e-06
3.35309e-07
3.10859e-06
2.80467e-07
2.48098e-07
3.11589e-06
3.26843e-06
1.65683e-07
3.27144e-06
1.28741e-08
3.26738e-06
-1.00519e-07
3.24279e-06
-5.81688e-07
3.25509e-06
2.80348e-07
3.26634e-06
3.3103e-07
3.2945e-06
4.53327e-07
3.2884e-06
-1.76379e-08
3.27815e-06
-4.46911e-07
3.25261e-06
-4.66663e-07
3.23847e-06
-4.24787e-07
3.22033e-06
-3.49914e-07
3.22401e-06
3.68558e-08
3.21332e-06
3.7122e-08
3.235e-06
2.93878e-07
3.23962e-06
3.60768e-07
3.24913e-06
3.02034e-07
3.25931e-06
3.25128e-07
3.25779e-06
2.81988e-07
2.41875e-07
3.26401e-06
3.42472e-06
1.60894e-07
3.42714e-06
1.04536e-08
3.42379e-06
-9.71652e-08
3.39828e-06
-5.56181e-07
3.41169e-06
2.66938e-07
3.42207e-06
3.2065e-07
3.45088e-06
4.2452e-07
3.44431e-06
-1.10722e-08
3.43399e-06
-4.36589e-07
3.40888e-06
-4.4155e-07
3.3934e-06
-4.09307e-07
3.37651e-06
-3.33026e-07
3.37915e-06
3.42112e-08
3.36938e-06
4.68938e-08
3.38959e-06
2.73675e-07
3.39545e-06
3.54905e-07
3.40341e-06
2.94073e-07
3.41483e-06
3.13707e-07
3.41426e-06
2.82562e-07
2.36902e-07
3.41923e-06
3.58848e-06
1.5583e-07
3.5902e-06
8.72441e-09
3.58768e-06
-9.46404e-08
3.56125e-06
-5.29755e-07
3.57574e-06
2.52451e-07
3.58532e-06
3.1107e-07
3.61455e-06
3.95294e-07
3.60778e-06
-4.30837e-09
3.59708e-06
-4.25888e-07
3.5728e-06
-4.17271e-07
3.55577e-06
-3.92271e-07
3.54012e-06
-3.17378e-07
3.54192e-06
3.24091e-08
3.53281e-06
5.60003e-08
3.55169e-06
2.54803e-07
3.55871e-06
3.47886e-07
3.56518e-06
2.876e-07
3.57751e-06
3.01378e-07
3.57832e-06
2.81749e-07
2.33314e-07
3.58191e-06
3.76005e-06
1.50483e-07
3.76101e-06
7.76608e-09
3.7594e-06
-9.30288e-08
3.7321e-06
-5.02453e-07
3.74757e-06
2.36977e-07
3.75647e-06
3.02169e-07
3.78584e-06
3.65932e-07
3.7792e-06
2.33129e-09
3.76779e-06
-4.14478e-07
3.74472e-06
-3.94206e-07
3.72603e-06
-3.7358e-07
3.71144e-06
-3.02791e-07
3.7127e-06
3.11494e-08
3.70396e-06
6.47396e-08
3.72161e-06
2.37154e-07
3.72982e-06
3.39679e-07
3.73487e-06
2.82544e-07
3.74763e-06
2.88621e-07
3.75025e-06
2.7913e-07
2.3104e-07
3.75253e-06
3.93982e-06
1.4485e-07
3.93996e-06
7.62851e-09
3.93929e-06
-9.2364e-08
3.91122e-06
-4.74382e-07
3.92752e-06
2.20677e-07
3.93593e-06
2.93763e-07
3.96509e-06
3.36771e-07
3.95894e-06
8.47712e-09
3.9465e-06
-4.02034e-07
3.92493e-06
-3.72641e-07
3.90466e-06
-3.53308e-07
3.89081e-06
-2.88939e-07
3.89187e-06
3.00919e-08
3.88325e-06
7.33533e-08
3.89968e-06
2.20733e-07
3.90917e-06
3.30184e-07
3.91297e-06
2.78746e-07
3.92559e-06
2.76006e-07
3.93029e-06
2.74429e-07
2.29791e-07
3.93154e-06
4.12817e-06
1.38934e-07
4.12746e-06
8.33296e-09
4.12773e-06
-9.26284e-08
4.09905e-06
-4.45708e-07
4.11595e-06
2.03778e-07
4.1241e-06
2.85612e-07
4.15267e-06
3.08198e-07
4.14741e-06
1.3745e-08
4.13366e-06
-3.8829e-07
4.11374e-06
-3.52723e-07
4.09211e-06
-3.31676e-07
4.07863e-06
-2.75461e-07
4.07975e-06
2.89744e-08
4.07118e-06
8.19235e-08
4.08622e-06
2.05695e-07
4.09712e-06
3.19285e-07
4.09995e-06
2.75913e-07
4.11182e-06
2.64137e-07
4.11865e-06
2.676e-07
2.29021e-07
4.11942e-06
4.32549e-06
1.32745e-07
4.32396e-06
9.86735e-09
4.32507e-06
-9.37444e-08
4.29603e-06
-4.1667e-07
4.31323e-06
1.86579e-07
4.32143e-06
2.7742e-07
4.34899e-06
2.80631e-07
4.34497e-06
1.77661e-08
4.32976e-06
-3.73077e-07
4.31146e-06
-3.34422e-07
4.28882e-06
-3.0904e-07
4.27534e-06
-2.61983e-07
4.27671e-06
2.76104e-08
4.26822e-06
9.0409e-08
4.28166e-06
1.92261e-07
4.29399e-06
3.06952e-07
4.29627e-06
2.73629e-07
4.30688e-06
2.53531e-07
4.3156e-06
2.58877e-07
2.28038e-07
4.31659e-06
4.53221e-06
1.26305e-07
4.5299e-06
1.21812e-08
4.53172e-06
-9.55682e-08
4.50263e-06
-3.87575e-07
4.51978e-06
1.6943e-07
4.52834e-06
2.68854e-07
4.55448e-06
2.54495e-07
4.552e-06
2.02477e-08
4.53531e-06
-3.5639e-07
4.51844e-06
-3.1755e-07
4.49523e-06
-2.85829e-07
4.48141e-06
-2.48161e-07
4.48312e-06
2.59019e-08
4.47486e-06
9.86646e-08
4.48646e-06
1.80658e-07
4.50016e-06
2.93256e-07
4.50235e-06
2.71435e-07
4.5114e-06
2.44488e-07
4.52146e-06
2.48809e-07
2.26067e-07
4.52343e-06
4.74877e-06
1.19649e-07
4.74577e-06
1.51808e-08
4.74809e-06
-9.78824e-08
4.71932e-06
-3.58805e-07
4.73599e-06
1.52751e-07
4.7453e-06
2.59545e-07
4.76963e-06
2.30171e-07
4.76877e-06
2.11004e-08
4.75085e-06
-3.38471e-07
4.73511e-06
-3.01806e-07
4.71175e-06
-2.62473e-07
4.69731e-06
-2.33715e-07
4.69938e-06
2.38329e-08
4.69153e-06
1.06512e-07
4.70119e-06
1.70995e-07
4.71599e-06
2.78463e-07
4.71859e-06
2.68833e-07
4.72599e-06
2.37093e-07
4.7367e-06
2.38096e-07
2.22534e-07
4.74023e-06
4.97562e-06
1.12827e-07
4.97207e-06
1.87302e-08
4.97458e-06
-1.00394e-07
4.94658e-06
-3.30804e-07
4.96234e-06
1.36993e-07
4.97275e-06
2.4913e-07
4.995e-06
2.07928e-07
4.9956e-06
2.04934e-08
4.97688e-06
-3.19745e-07
4.96196e-06
-2.86886e-07
4.93884e-06
-2.39354e-07
4.92357e-06
-2.18442e-07
4.92591e-06
2.14866e-08
4.91871e-06
1.13712e-07
4.92637e-06
1.63341e-07
4.94188e-06
2.62945e-07
4.94538e-06
2.65337e-07
4.95124e-06
2.31228e-07
4.9619e-06
2.27436e-07
2.17248e-07
4.96719e-06
5.21324e-06
1.05903e-07
5.20932e-06
2.26454e-08
5.21165e-06
-1.02718e-07
5.18492e-06
-3.04072e-07
5.19931e-06
1.22601e-07
5.21112e-06
2.37321e-07
5.23129e-06
1.87756e-07
5.23292e-06
1.88655e-08
5.21383e-06
-3.00659e-07
5.19952e-06
-2.72568e-07
5.17692e-06
-2.16759e-07
5.16071e-06
-2.02233e-07
5.16317e-06
1.90273e-08
5.15683e-06
1.2005e-07
5.16251e-06
1.57663e-07
5.17834e-06
2.47113e-07
5.1831e-06
2.60576e-07
5.18773e-06
2.26599e-07
5.19771e-06
2.17455e-07
2.10356e-07
5.20461e-06
5.46213e-06
9.89613e-08
5.45808e-06
2.66916e-08
5.45971e-06
-1.04342e-07
5.43479e-06
-2.79158e-07
5.44751e-06
1.09887e-07
5.46078e-06
2.24046e-07
5.47928e-06
1.69263e-07
5.48136e-06
1.67769e-08
5.46218e-06
-2.8147e-07
5.44834e-06
-2.58729e-07
5.42647e-06
-1.9489e-07
5.40927e-06
-1.85037e-07
5.41162e-06
1.66831e-08
5.40636e-06
1.25305e-07
5.41016e-06
1.5386e-07
5.42593e-06
2.31348e-07
5.43217e-06
2.54331e-07
5.43595e-06
2.22824e-07
5.44488e-06
2.0852e-07
2.02368e-07
5.45287e-06
5.72283e-06
9.20927e-08
5.71892e-06
3.06033e-08
5.71915e-06
-1.04579e-07
5.69666e-06
-2.56668e-07
5.70767e-06
9.88781e-08
5.72206e-06
2.09659e-07
5.73951e-06
1.51807e-07
5.74172e-06
1.45723e-08
5.72246e-06
-2.62216e-07
5.70892e-06
-2.45188e-07
5.68791e-06
-1.73879e-07
5.66975e-06
-1.66879e-07
5.6717e-06
1.47388e-08
5.66775e-06
1.2925e-07
5.66995e-06
1.51659e-07
5.6852e-06
2.16101e-07
5.69304e-06
2.4649e-07
5.69638e-06
2.19484e-07
5.70413e-06
2.00776e-07
1.93894e-07
5.7126e-06
5.99589e-06
8.53918e-08
5.99239e-06
3.41094e-08
5.99035e-06
-1.02544e-07
5.97093e-06
-2.37241e-07
5.98067e-06
8.91291e-08
5.99538e-06
1.94958e-07
6.01232e-06
1.34866e-07
6.01473e-06
1.21547e-08
5.99523e-06
-2.42708e-07
5.98168e-06
-2.31641e-07
5.96156e-06
-1.53764e-07
5.94258e-06
-1.47892e-07
5.9439e-06
1.34186e-08
5.94151e-06
1.31639e-07
5.9425e-06
1.50668e-07
5.9568e-06
2.01806e-07
5.96621e-06
2.37074e-07
5.96953e-06
2.16163e-07
5.97612e-06
1.94184e-07
1.85503e-07
5.98452e-06
6.28194e-06
7.89418e-08
6.27909e-06
3.69586e-08
6.27464e-06
-9.80912e-08
6.25795e-06
-2.20551e-07
6.26724e-06
7.98368e-08
6.28143e-06
1.80767e-07
6.29786e-06
1.18433e-07
6.30061e-06
9.4034e-09
6.28052e-06
-2.22616e-07
6.26648e-06
-2.17596e-07
6.24747e-06
-1.34761e-07
6.22809e-06
-1.28512e-07
6.22883e-06
1.26876e-08
6.22819e-06
1.32274e-07
6.2284e-06
1.50455e-07
6.24144e-06
1.8877e-07
6.25221e-06
2.263e-07
6.25591e-06
2.12462e-07
6.2615e-06
1.88597e-07
1.77559e-07
6.26944e-06
6.58161e-06
7.28007e-08
6.57962e-06
3.89454e-08
6.57355e-06
-9.20173e-08
6.55817e-06
-2.05175e-07
6.56788e-06
7.0128e-08
6.5811e-06
1.67554e-07
6.59618e-06
1.03346e-07
6.59872e-06
6.86456e-09
6.57784e-06
-2.01735e-07
6.56327e-06
-2.03028e-07
6.54604e-06
-1.17531e-07
6.52697e-06
-1.09438e-07
6.52722e-06
1.24317e-08
6.52845e-06
1.31049e-07
6.52831e-06
1.50591e-07
6.5398e-06
1.77279e-07
6.55164e-06
2.14464e-07
6.55606e-06
2.08043e-07
6.56083e-06
1.8383e-07
1.70259e-07
6.56813e-06
6.89559e-06
6.69999e-08
6.89468e-06
3.98593e-08
6.88752e-06
-8.48597e-08
6.87242e-06
-1.90077e-07
6.88294e-06
5.96056e-08
6.89539e-06
1.55112e-07
6.90795e-06
9.07773e-08
6.91006e-06
4.76246e-09
6.88937e-06
-1.8105e-07
6.87407e-06
-1.87723e-07
6.85864e-06
-1.02105e-07
6.84032e-06
-9.1117e-08
6.84001e-06
1.27371e-08
6.84292e-06
1.28146e-07
6.84286e-06
1.50646e-07
6.85262e-06
1.67517e-07
6.86509e-06
2.01994e-07
6.87053e-06
2.02607e-07
6.8747e-06
1.79663e-07
1.63702e-07
6.88125e-06
7.22458e-06
6.15537e-08
7.22516e-06
3.92852e-08
7.21704e-06
-7.67465e-08
7.20168e-06
-1.74713e-07
7.21288e-06
4.84101e-08
7.22504e-06
1.42944e-07
7.2351e-06
8.07236e-08
7.23705e-06
2.80843e-09
7.2169e-06
-1.60901e-07
7.20062e-06
-1.7144e-07
7.18644e-06
-8.79294e-08
7.1691e-06
-7.37723e-08
7.16805e-06
1.37838e-08
7.17228e-06
1.23917e-07
7.17266e-06
1.50265e-07
7.18068e-06
1.595e-07
7.19324e-06
1.89431e-07
7.19989e-06
1.95958e-07
7.20374e-06
1.75814e-07
1.57941e-07
7.2095e-06
7.56934e-06
5.64439e-08
7.57172e-06
3.69031e-08
7.56286e-06
-6.78845e-08
7.54706e-06
-1.58916e-07
7.55823e-06
3.72344e-08
7.57101e-06
1.30168e-07
7.57888e-06
7.28564e-08
7.58043e-06
1.25449e-09
7.56088e-06
-1.41346e-07
7.54349e-06
-1.54054e-07
7.53022e-06
-7.4659e-08
7.51401e-06
-5.75647e-08
7.51215e-06
1.56452e-08
7.51728e-06
1.18783e-07
7.51835e-06
1.49199e-07
7.52475e-06
1.53097e-07
7.53691e-06
1.77278e-07
7.54474e-06
1.88123e-07
7.54863e-06
1.7192e-07
1.52943e-07
7.55363e-06
7.93064e-06
5.16141e-08
7.93421e-06
3.33302e-08
7.92603e-06
-5.96968e-08
7.90959e-06
-1.42479e-07
7.92018e-06
2.66427e-08
7.93402e-06
1.16328e-07
7.94134e-06
6.55405e-08
7.9421e-06
4.95537e-10
7.9216e-06
-1.20851e-07
7.90326e-06
-1.35709e-07
7.89075e-06
-6.21561e-08
7.87575e-06
-4.25565e-08
7.87304e-06
1.83522e-08
7.87869e-06
1.13127e-07
7.88062e-06
1.47272e-07
7.88569e-06
1.48026e-07
7.89696e-06
1.6601e-07
7.90577e-06
1.79313e-07
7.91008e-06
1.67613e-07
1.48572e-07
7.91445e-06
8.3093e-06
4.6998e-08
8.31317e-06
2.94587e-08
8.30749e-06
-5.40193e-08
8.29056e-06
-1.25547e-07
8.2998e-06
1.74025e-08
8.31384e-06
1.0229e-07
8.3213e-06
5.80752e-08
8.31949e-06
2.30897e-09
8.29878e-06
-1.00138e-07
8.28066e-06
-1.1759e-07
8.26894e-06
-5.04371e-08
8.25501e-06
-2.86287e-08
8.25152e-06
2.18388e-08
8.25731e-06
1.07346e-07
8.26021e-06
1.44366e-07
8.26428e-06
1.43954e-07
8.27437e-06
1.55924e-07
8.28379e-06
1.69893e-07
8.28876e-06
1.62639e-07
1.44579e-07
8.29276e-06
8.7061e-06
4.25595e-08
8.70998e-06
2.55753e-08
8.70615e-06
-5.01818e-08
8.69004e-06
-1.09437e-07
8.6967e-06
1.07349e-08
8.70731e-06
9.16861e-08
8.70884e-06
5.65475e-08
8.70762e-06
3.52067e-09
8.69279e-06
-8.53064e-08
8.67658e-06
-1.0138e-07
8.66556e-06
-3.94192e-08
8.65256e-06
-1.56212e-08
8.64839e-06
2.60015e-08
8.65402e-06
1.0172e-07
8.65792e-06
1.40464e-07
8.66141e-06
1.40465e-07
8.67012e-06
1.4721e-07
8.67978e-06
1.60237e-07
8.68547e-06
1.56947e-07
1.40691e-07
8.68936e-06
9.12193e-06
3.82448e-08
9.1257e-06
2.18077e-08
9.12241e-06
-4.68904e-08
9.1051e-06
-9.21279e-08
9.10426e-06
1.15731e-08
9.11462e-06
8.13306e-08
9.11933e-06
5.18397e-08
9.1191e-06
3.74979e-09
9.1062e-06
-7.24066e-08
9.09161e-06
-8.67979e-08
9.08137e-06
-2.91767e-08
9.0693e-06
-3.5504e-09
9.06457e-06
3.07349e-08
9.06979e-06
9.65031e-08
9.07456e-06
1.35686e-07
9.07784e-06
1.37188e-07
9.0852e-06
1.39852e-07
9.09471e-06
1.50728e-07
9.10106e-06
1.5059e-07
1.36695e-07
9.10506e-06
9.55766e-06
3.40416e-08
9.56068e-06
1.87865e-08
9.5578e-06
-4.40035e-08
9.54141e-06
-7.57444e-08
9.54003e-06
1.2957e-08
9.54938e-06
7.19802e-08
9.55361e-06
4.76066e-08
9.55222e-06
5.14282e-09
9.5399e-06
-6.00837e-08
9.52644e-06
-7.33442e-08
9.51711e-06
-1.98424e-08
9.50615e-06
7.40526e-09
9.50099e-06
3.59003e-08
9.50555e-06
9.19418e-08
9.51097e-06
1.30266e-07
9.51436e-06
1.338e-07
9.52051e-06
1.33696e-07
9.52954e-06
1.41705e-07
9.5364e-06
1.43728e-07
1.32441e-07
9.54065e-06
1.00142e-05
2.99703e-08
1.00162e-05
1.68366e-08
1.00141e-05
-4.19041e-08
9.99993e-06
-6.16212e-08
9.99711e-06
1.57845e-08
1.00049e-05
6.42087e-08
1.00088e-05
4.36939e-08
1.00068e-05
7.17624e-09
9.99474e-06
-4.80716e-08
9.98203e-06
-6.0628e-08
9.9737e-06
-1.15145e-08
9.96401e-06
1.70926e-08
9.95863e-06
4.12837e-08
9.96235e-06
8.8222e-08
9.96812e-06
1.24496e-07
9.97182e-06
1.30098e-07
9.97707e-06
1.28449e-07
9.98531e-06
1.33459e-07
9.99249e-06
1.36548e-07
1.27845e-07
9.99709e-06
1.04925e-05
2.60649e-08
1.04937e-05
1.57232e-08
1.04919e-05
-4.0184e-08
1.04804e-05
-5.01221e-08
1.04763e-05
1.993e-08
1.04822e-05
5.8331e-08
1.04857e-05
4.01298e-08
1.04835e-05
9.44178e-09
1.04717e-05
-3.63479e-08
1.04595e-05
-4.83872e-08
1.04521e-05
-4.07877e-09
1.04437e-05
2.54183e-08
1.04384e-05
4.66118e-08
1.04413e-05
8.53651e-08
1.04471e-05
1.187e-07
1.04512e-05
1.25949e-07
1.04558e-05
1.23821e-07
1.04632e-05
1.26114e-07
1.04704e-05
1.29297e-07
1.2289e-07
1.04754e-05
1.09937e-05
2.23869e-08
1.09942e-05
1.52149e-08
1.09925e-05
-3.8436e-08
1.09833e-05
-4.09955e-08
1.09785e-05
2.4764e-08
1.09824e-05
5.43974e-08
1.09855e-05
3.7089e-08
1.09832e-05
1.16847e-08
1.0972e-05
-2.50896e-08
1.09601e-05
-3.64699e-08
1.09533e-05
2.67395e-09
1.09463e-05
3.23791e-08
1.09413e-05
5.16177e-08
1.09434e-05
8.328e-08
1.0949e-05
1.13136e-07
1.09535e-05
1.21429e-07
1.09578e-05
1.19526e-07
1.09643e-05
1.19657e-07
1.09713e-05
1.22221e-07
1.17617e-07
1.09766e-05
1.15187e-05
1.9019e-08
1.15189e-05
1.5062e-08
1.15165e-05
-3.60698e-08
1.15093e-05
-3.37939e-08
1.15046e-05
2.94805e-08
1.15068e-05
5.21678e-08
1.15091e-05
3.48169e-08
1.1507e-05
1.3755e-08
1.14965e-05
-1.4528e-08
1.14849e-05
-2.48603e-08
1.14785e-05
8.98986e-09
1.14728e-05
3.8089e-08
1.14684e-05
5.60759e-08
1.14698e-05
8.18142e-08
1.1475e-05
1.07972e-07
1.14798e-05
1.16653e-07
1.1484e-05
1.15341e-07
1.14897e-05
1.13969e-07
1.14964e-05
1.15515e-07
1.12135e-07
1.15018e-05
1.20688e-05
1.60693e-08
1.20687e-05
1.51448e-08
1.20651e-05
-3.25054e-08
1.20593e-05
-2.79997e-08
1.20556e-05
3.31773e-08
1.20566e-05
5.12416e-08
1.20578e-05
3.35308e-08
1.2056e-05
1.56451e-08
1.20463e-05
-4.89115e-09
1.20351e-05
-1.36632e-08
1.2029e-05
1.50975e-08
1.20244e-05
4.27124e-08
1.20206e-05
5.98196e-08
1.20217e-05
8.07893e-08
1.20264e-05
1.03277e-07
1.20312e-05
1.11785e-07
1.20354e-05
1.11163e-07
1.20405e-05
1.08886e-07
1.20467e-05
1.09302e-07
1.06571e-07
1.20523e-05
1.2645e-05
1.36433e-08
1.26446e-05
1.5584e-08
1.26392e-05
-2.71235e-08
1.26347e-05
-2.35409e-08
1.26328e-05
3.51527e-08
1.26329e-05
5.11353e-08
1.2633e-05
3.33668e-08
1.26312e-05
1.75213e-08
1.26226e-05
3.63303e-09
1.2612e-05
-3.04973e-09
1.2606e-05
2.10986e-08
1.26022e-05
4.65176e-08
1.25992e-05
6.28022e-08
1.26e-05
7.99945e-08
1.26043e-05
9.90361e-08
1.26091e-05
1.06979e-07
1.26133e-05
1.06946e-07
1.2618e-05
1.04217e-07
1.26236e-05
1.03629e-07
1.01038e-07
1.26292e-05
1.32488e-05
1.18154e-08
1.32478e-05
1.65712e-08
1.32412e-05
-2.05414e-08
1.32375e-05
-1.98443e-08
1.32372e-05
3.54011e-08
1.3237e-05
5.13906e-08
1.3236e-05
3.43633e-08
1.32339e-05
1.96027e-08
1.32265e-05
1.1023e-08
1.32168e-05
6.71386e-09
1.32109e-05
2.69724e-08
1.32076e-05
4.97551e-08
1.32053e-05
6.51139e-08
1.32061e-05
7.92137e-08
1.321e-05
9.51992e-08
1.32146e-05
1.02321e-07
1.32188e-05
1.02713e-07
1.32233e-05
9.98024e-08
1.32284e-05
9.8483e-08
9.56811e-08
1.32338e-05
1.38814e-05
1.05638e-08
1.38806e-05
1.73648e-08
1.38733e-05
-1.32085e-08
1.38694e-05
-1.59406e-08
1.38704e-05
3.44123e-08
1.38702e-05
5.16025e-08
1.38681e-05
3.63969e-08
1.38656e-05
2.21238e-08
1.38593e-05
1.73465e-08
1.38505e-05
1.54509e-08
1.38449e-05
3.26114e-08
1.38421e-05
5.25779e-08
1.38403e-05
6.68633e-08
1.38412e-05
7.83984e-08
1.38447e-05
9.16481e-08
1.38491e-05
9.78816e-08
1.38534e-05
9.85036e-08
1.38576e-05
9.55391e-08
1.38623e-05
9.37536e-08
9.06289e-08
1.38674e-05
1.45444e-05
9.84844e-09
1.45438e-05
1.79937e-08
1.45364e-05
-5.82901e-09
1.45318e-05
-1.14053e-08
1.45335e-05
3.27419e-08
1.45336e-05
5.1476e-08
1.45309e-05
3.91747e-08
1.45277e-05
2.52392e-08
1.45223e-05
2.28335e-08
1.45147e-05
2.30354e-08
1.45094e-05
3.78908e-08
1.45069e-05
5.50595e-08
1.45056e-05
6.81608e-08
1.45065e-05
7.74909e-08
1.45098e-05
8.83401e-08
1.45141e-05
9.36404e-08
1.45182e-05
9.43579e-08
1.45224e-05
9.13882e-08
1.45268e-05
8.93079e-08
8.59495e-08
1.45315e-05
1.52392e-05
9.5796e-09
1.52389e-05
1.82802e-08
1.52318e-05
1.25637e-09
1.52264e-05
-6.03549e-09
1.52281e-05
3.10612e-08
1.52287e-05
5.08302e-08
1.52256e-05
4.2306e-08
1.52219e-05
2.89798e-08
1.52169e-05
2.78034e-08
1.52105e-05
2.94174e-08
1.52058e-05
4.26359e-08
1.52035e-05
5.72938e-08
1.52027e-05
6.90414e-08
1.52036e-05
7.65116e-08
1.52067e-05
8.52403e-08
1.52108e-05
8.95672e-08
1.52149e-05
9.0302e-08
1.52189e-05
8.73371e-08
1.52232e-05
8.50487e-08
8.16099e-08
1.52275e-05
1.59673e-05
9.64501e-09
1.59671e-05
1.83984e-08
1.59607e-05
7.65474e-09
1.59546e-05
8.19063e-11
1.59557e-05
2.99473e-08
1.59569e-05
4.96745e-08
1.59538e-05
4.54007e-08
1.59496e-05
3.32319e-08
1.59449e-05
3.24888e-08
1.59395e-05
3.48015e-08
1.59354e-05
4.66763e-08
1.59335e-05
5.92211e-08
1.5933e-05
6.95948e-08
1.5934e-05
7.54553e-08
1.59369e-05
8.23446e-08
1.59408e-05
8.56346e-08
1.59448e-05
8.63326e-08
1.59488e-05
8.3399e-08
1.59529e-05
8.09212e-08
7.75212e-08
1.5957e-05
1.67303e-05
9.93849e-09
1.673e-05
1.87539e-08
1.67245e-05
1.3095e-08
1.67181e-05
6.5152e-09
1.67182e-05
2.97982e-08
1.67197e-05
4.82404e-08
1.67169e-05
4.81191e-08
1.67124e-05
3.77518e-08
1.67079e-05
3.70454e-08
1.67033e-05
3.94094e-08
1.66999e-05
5.00368e-08
1.66984e-05
6.06941e-08
1.66981e-05
6.98787e-08
1.66993e-05
7.43267e-08
1.6702e-05
7.96264e-08
1.67057e-05
8.18791e-08
1.67097e-05
8.24092e-08
1.67135e-05
7.95916e-08
1.67175e-05
7.69019e-08
7.3593e-08
1.67214e-05
1.75299e-05
1.03526e-08
1.75293e-05
1.93727e-08
1.75247e-05
1.76744e-08
1.75183e-05
1.29328e-08
1.75174e-05
3.07595e-08
1.75187e-05
4.68833e-08
1.75166e-05
5.02707e-08
1.75121e-05
4.2253e-08
1.75076e-05
4.15046e-08
1.75036e-05
4.34516e-08
1.75008e-05
5.28078e-08
1.74998e-05
6.16975e-08
1.74998e-05
6.984e-08
1.7501e-05
7.3138e-08
1.75036e-05
7.7024e-08
1.75072e-05
7.83358e-08
1.75111e-05
7.8528e-08
1.75148e-05
7.58822e-08
1.75186e-05
7.30209e-08
6.97573e-08
1.75225e-05
1.83679e-05
1.08152e-08
1.83668e-05
2.04079e-08
1.8363e-05
2.1489e-08
1.8357e-05
1.89644e-08
1.8355e-05
3.27306e-08
1.83559e-05
4.59842e-08
1.83543e-05
5.18533e-08
1.83502e-05
4.6407e-08
1.83458e-05
4.58637e-08
1.83422e-05
4.70813e-08
1.834e-05
5.50601e-08
1.83393e-05
6.23387e-08
1.83397e-05
6.94269e-08
1.8341e-05
7.18523e-08
1.83435e-05
7.4512e-08
1.83469e-05
7.4968e-08
1.83507e-05
7.47539e-08
1.83543e-05
7.22022e-08
1.83581e-05
6.93043e-08
6.59863e-08
1.83618e-05
1.92459e-05
1.12796e-08
1.92445e-05
2.18455e-08
1.92412e-05
2.47619e-08
1.92358e-05
2.43992e-08
1.92331e-05
3.54326e-08
1.92332e-05
4.58172e-08
1.92321e-05
5.30374e-08
1.92285e-05
4.99725e-08
1.92244e-05
5.00095e-08
1.9221e-05
5.04137e-08
1.92192e-05
5.69116e-08