/*--------------------------------*- C++ -*----------------------------------*\
| =========                 |                                                 |
| \\      /  F ield         | OpenFOAM: The Open Source CFD Toolbox           |
|  \\    /   O peration     | Version:  3.0.1                                 |
|   \\  /    A nd           | Web:      www.OpenFOAM.org                      |
|    \\/     M anipulation  |                                                 |
\*---------------------------------------------------------------------------*/
FoamFile
{
    version     2.0;
    format      ascii;
    class       volVectorField;
    location    "3";
    object      U;
}
// * * * * * * * * * * * * * * * * * * * * * * * * * * * * * * * * * * * * * //

dimensions      [0 1 -1 0 0 0 0];

internalField   nonuniform List<vector> 
9600
(
(0.876062 0.0017529 0)
(1.11681 0.000418837 0)
(0.86648 -0.00289094 0)
(1.09151 -0.00897043 0)
(0.959415 0.00783393 0)
(1.11614 0.00412582 0)
(0.828423 0.0102306 0)
(1.07693 0.000560249 0)
(0.862426 -0.0142786 0)
(1.05013 -0.0139957 0)
(0.946354 -0.0114212 0)
(1.06989 -0.0147575 0)
(0.94507 0.00694589 0)
(1.09594 -0.00873023 0)
(0.902146 0.0220972 0)
(1.0927 0.00541316 0)
(0.851825 0.0228552 0)
(1.0712 0.00565845 0)
(0.8022 0.016527 0)
(1.06318 0.00763981 0)
(0.884724 0.00172399 0)
(1.10522 0.000686828 0)
(0.878956 -0.00280815 0)
(1.08025 -0.00962062 0)
(0.963918 0.00722398 0)
(1.10349 0.00567015 0)
(0.849687 0.0105695 0)
(1.05028 0.000322425 0)
(0.89452 -0.0141109 0)
(1.02915 -0.0150737 0)
(0.96113 -0.0120253 0)
(1.05221 -0.0145168 0)
(0.960578 0.00602556 0)
(1.07246 -0.00735794 0)
(0.92655 0.0215113 0)
(1.05241 0.00710181 0)
(0.90162 0.023068 0)
(1.0022 0.00711779 0)
(0.894417 0.0180404 0)
(0.950145 0.00761672 0)
(0.90136 0.0017413 0)
(1.08493 0.000834384 0)
(0.900809 -0.00277747 0)
(1.06116 -0.0102263 0)
(0.972887 0.00694967 0)
(1.08215 0.00691019 0)
(0.884991 0.0109558 0)
(1.02073 -3.3113e-05 0)
(0.931459 -0.014036 0)
(1.00521 -0.0158574 0)
(0.978859 -0.0123692 0)
(1.03055 -0.014471 0)
(0.98123 0.00551896 0)
(1.04542 -0.00662004 0)
(0.957154 0.0215381 0)
(1.01879 0.00800838 0)
(0.943804 0.0236955 0)
(0.973894 0.00782576 0)
(0.939644 0.0181678 0)
(0.946581 0.00833185 0)
(0.922914 0.0017974 0)
(1.06081 0.000915748 0)
(0.927284 -0.00271537 0)
(1.03927 -0.0106804 0)
(0.9829 0.00678862 0)
(1.05911 0.00771803 0)
(0.922566 0.0114911 0)
(1.00062 -0.000433106 0)
(0.960881 -0.0139453 0)
(0.989003 -0.0163766 0)
(0.990096 -0.0127514 0)
(1.01549 -0.0145192 0)
(0.99498 0.00525403 0)
(1.02626 -0.00609985 0)
(0.977052 0.0220722 0)
(1.00314 0.00845576 0)
(0.965166 0.0245542 0)
(0.973031 0.00807462 0)
(0.957745 0.0184732 0)
(0.962244 0.00900088 0)
(0.94527 0.00187836 0)
(1.03825 0.000942859 0)
(0.952715 -0.00262393 0)
(1.01998 -0.0110214 0)
(0.990265 0.00656723 0)
(1.03966 0.00825536 0)
(0.953942 0.0120445 0)
(0.993267 -0.000757115 0)
(0.979464 -0.0138366 0)
(0.982781 -0.0166968 0)
(0.993831 -0.0131692 0)
(1.00737 -0.0145805 0)
(1.00027 0.005013 0)
(1.01508 -0.00557784 0)
(0.984908 0.0223729 0)
(0.997032 0.00904351 0)
(0.974195 0.0249163 0)
(0.977688 0.00860653 0)
(0.968065 0.018582 0)
(0.973089 0.00967836 0)
(0.964773 0.00196733 0)
(1.02119 0.00093092 0)
(0.973106 -0.0025319 0)
(1.00641 -0.01124 0)
(0.993365 0.00633948 0)
(1.02568 0.00857236 0)
(0.976191 0.0124758 0)
(0.995144 -0.000946821 0)
(0.99033 -0.0136996 0)
(0.98286 -0.0168447 0)
(0.993737 -0.0135306 0)
(1.00217 -0.014672 0)
(1.00023 0.0047871 0)
(1.00865 -0.00507217 0)
(0.986133 0.0224907 0)
(0.994445 0.00964374 0)
(0.978925 0.0248463 0)
(0.982487 0.0092466 0)
(0.976379 0.0181895 0)
(0.981236 0.0103634 0)
(0.979365 0.00204387 0)
(1.01078 0.000894806 0)
(0.987217 -0.0024462 0)
(0.998721 -0.0113206 0)
(0.993027 0.00612959 0)
(1.01637 0.00868887 0)
(0.990388 0.0127405 0)
(1.0009 -0.00102586 0)
(0.997254 -0.0135051 0)
(0.985343 -0.016846 0)
(0.992714 -0.0137894 0)
(0.997552 -0.0147614 0)
(0.997588 0.00457066 0)
(1.00413 -0.00458933 0)
(0.985632 0.0225385 0)
(0.993567 0.010148 0)
(0.983228 0.0245679 0)
(0.987411 0.00985181 0)
(0.984023 0.0175492 0)
(0.988445 0.0111505 0)
(0.988845 0.00209336 0)
(1.00572 0.00085039 0)
(0.995861 -0.00236205 0)
(0.995184 -0.0112829 0)
(0.991273 0.00592945 0)
(1.01009 0.00864475 0)
(0.99896 0.0128409 0)
(1.00687 -0.00103997 0)
(1.00223 -0.0132444 0)
(0.988283 -0.0167311 0)
(0.991916 -0.013924 0)
(0.993195 -0.0148095 0)
(0.994009 0.00433153 0)
(0.999978 -0.00414713 0)
(0.98558 0.0224599 0)
(0.993914 0.0105711 0)
(0.988003 0.0241106 0)
(0.992406 0.0104267 0)
(0.99095 0.0168465 0)
(0.994709 0.0119448 0)
(0.994282 0.00211351 0)
(1.00378 0.000804649 0)
(1.00065 -0.00227578 0)
(0.993868 -0.011163 0)
(0.989807 0.00574662 0)
(1.00569 0.00848871 0)
(1.00401 0.0127995 0)
(1.01149 -0.00102363 0)
(1.00587 -0.0129319 0)
(0.991031 -0.016524 0)
(0.991642 -0.0139311 0)
(0.989429 -0.0147959 0)
(0.99048 0.00406912 0)
(0.995851 -0.00377157 0)
(0.98618 0.0222017 0)
(0.994958 0.0109319 0)
(0.992753 0.0234532 0)
(0.996949 0.0110183 0)
(0.99669 0.0160895 0)
(0.99966 0.0127223 0)
(0.997131 0.00211098 0)
(1.00313 0.000756739 0)
(1.00308 -0.00218629 0)
(0.99351 -0.0109921 0)
(0.989306 0.00558885 0)
(1.00262 0.00826202 0)
(1.00687 0.012648 0)
(1.01445 -0.000996578 0)
(1.00832 -0.012589 0)
(0.993357 -0.0162454 0)
(0.991886 -0.0138238 0)
(0.98658 -0.0147071 0)
(0.987505 0.00380036 0)
(0.992028 -0.00346843 0)
(0.986947 0.0217493 0)
(0.996066 0.0112384 0)
(0.996684 0.0226192 0)
(1.00046 0.0116478 0)
(1.00086 0.0153041 0)
(1.00307 0.0134776 0)
(0.998575 0.00209424 0)
(1.0028 0.000708791 0)
(1.00422 -0.00209417 0)
(0.993547 -0.0107946 0)
(0.989619 0.00545417 0)
(1.00057 0.00799581 0)
(1.00829 0.0124163 0)
(1.01599 -0.000967025 0)
(1.00977 -0.0122345 0)
(0.995153 -0.0159174 0)
(0.99249 -0.0136265 0)
(0.984781 -0.0145385 0)
(0.985259 0.00353234 0)
(0.988844 -0.00321529 0)
(0.987431 0.021107 0)
(0.996742 0.0115049 0)
(0.999261 0.0216598 0)
(1.00261 0.0123029 0)
(1.00338 0.0145603 0)
(1.00497 0.0141575 0)
(0.99933 0.00207014 0)
(1.0025 0.000661625 0)
(1.00473 -0.00200215 0)
(0.993789 -0.0105851 0)
(0.990289 0.00533644 0)
(0.999274 0.00771507 0)
(1.0087 0.012131 0)
(1.01648 -0.000937769 0)
(1.01047 -0.0118812 0)
(0.996407 -0.0155594 0)
(0.993242 -0.0133671 0)
(0.98395 -0.0142949 0)
(0.983732 0.00327312 0)
(0.986482 -0.00298708 0)
(0.987439 0.0202997 0)
(0.996778 0.0117499 0)
(1.0004 0.0206244 0)
(1.00339 0.0129617 0)
(1.00446 0.0138956 0)
(1.00561 0.0147031 0)
(0.99974 0.0020427 0)
(1.00221 0.00061456 0)
(1.00496 -0.00191322 0)
(0.994149 -0.0103689 0)
(0.990944 0.00523061 0)
(0.998488 0.007435 0)
(1.00848 0.0118123 0)
(1.01629 -0.000910189 0)
(1.0107 -0.011538 0)
(0.997202 -0.0151796 0)
(0.993966 -0.0130722 0)
(0.98385 -0.0139829 0)
(0.982823 0.00302769 0)
(0.984948 -0.00275 0)
(0.987046 0.0193686 0)
(0.996239 0.0119925 0)
(1.00039 0.0195452 0)
(1.0031 0.0135973 0)
(1.00451 0.013333 0)
(1.00541 0.0150702 0)
(0.999961 0.00201365 0)
(1.00198 0.000567304 0)
(1.00507 -0.00182874 0)
(0.994547 -0.0101457 0)
(0.991421 0.00513223 0)
(0.998027 0.00716317 0)
(1.00794 0.0114726 0)
(1.01572 -0.000885552 0)
(1.01066 -0.0112072 0)
(0.997662 -0.0147818 0)
(0.994569 -0.0127643 0)
(0.984194 -0.0136093 0)
(0.982384 0.00279212 0)
(0.984102 -0.00247822 0)
(0.986466 0.0183661 0)
(0.995343 0.0122413 0)
(0.999708 0.0184592 0)
(1.00217 0.0141577 0)
(1.00398 0.0129046 0)
(1.00476 0.0152407 0)
(1.00007 0.0019835 0)
(1.00181 0.000519305 0)
(1.00511 -0.00174859 0)
(0.994916 -0.00991408 0)
(0.991725 0.00503737 0)
(0.997781 0.0069025 0)
(1.00733 0.0111175 0)
(1.01499 -0.000863289 0)
(1.0105 -0.0108915 0)
(0.997907 -0.0143647 0)
(0.995029 -0.0124584 0)
(0.984744 -0.0131831 0)
(0.982266 0.00256185 0)
(0.983742 -0.00216401 0)
(0.985903 0.0173264 0)
(0.99432 0.0124944 0)
(0.998757 0.0174068 0)
(1.00098 0.0146104 0)
(1.00321 0.0126296 0)
(1.00397 0.0152208 0)
(1.00013 0.00195231 0)
(1.00169 0.000470341 0)
(1.0051 -0.00167198 0)
(0.995221 -0.00967287 0)
(0.991931 0.00494257 0)
(0.997683 0.00665229 0)
(1.00679 0.0107493 0)
(1.01423 -0.000839811 0)
(1.01029 -0.0105946 0)
(0.998025 -0.0139249 0)
(0.995361 -0.0121603 0)
(0.985355 -0.0127173 0)
(0.982349 0.00233557 0)
(0.983689 -0.00180172 0)
(0.985484 0.016269 0)
(0.993343 0.0127425 0)
(0.997824 0.0164156 0)
(0.999801 0.0149403 0)
(1.00243 0.0124978 0)
(1.00324 0.0150401 0)
(1.00016 0.00191997 0)
(1.0016 0.000420777 0)
(1.00506 -0.00159807 0)
(0.99546 -0.0094213 0)
(0.992111 0.00484418 0)
(0.997685 0.00641033 0)
(1.00636 0.0103711 0)
(1.01352 -0.000811811 0)
(1.01003 -0.0103146 0)
(0.998072 -0.0134652 0)
(0.995594 -0.0118693 0)
(0.985955 -0.01222 0)
(0.982553 0.00211043 0)
(0.983829 -0.00140084 0)
(0.98527 0.0152314 0)
(0.992524 0.0129551 0)
(0.997063 0.015511 0)
(0.998807 0.0151361 0)
(1.00177 0.0124675 0)
(1.00268 0.0147315 0)
(1.00018 0.00188615 0)
(1.00153 0.000371309 0)
(1.00497 -0.00152668 0)
(0.995654 -0.0091589 0)
(0.992305 0.00473874 0)
(0.997753 0.00617615 0)
(1.00604 0.00998178 0)
(1.01288 -0.000774329 0)
(1.00976 -0.0100526 0)
(0.998083 -0.0129822 0)
(0.995755 -0.0115897 0)
(0.986525 -0.0116968 0)
(0.982834 0.00188898 0)
(0.984104 -0.000974675 0)
(0.985279 0.0142305 0)
(0.991921 0.0131109 0)
(0.996533 0.0147058 0)
(0.998065 0.0152035 0)
(1.00127 0.0125049 0)
(1.00231 0.0143327 0)
(1.00019 0.00185073 0)
(1.00149 0.000322317 0)
(1.00484 -0.00145721 0)
(0.995829 -0.00888685 0)
(0.992523 0.00462477 0)
(0.997861 0.00595065 0)
(1.00578 0.00957775 0)
(1.01232 -0.000723281 0)
(1.00946 -0.00981086 0)
(0.998081 -0.0124729 0)
(0.995865 -0.0113176 0)
(0.987067 -0.0111662 0)
(0.983164 0.0016788 0)
(0.98448 -0.000545144 0)
(0.985496 0.0132771 0)
(0.991547 0.0132056 0)
(0.996228 0.0139927 0)
(0.997582 0.0151474 0)
(1.00091 0.0125853 0)
(1.00212 0.0138915 0)
(1.00018 0.00181359 0)
(1.00147 0.000274795 0)
(1.00468 -0.00139023 0)
(0.996008 -0.00860607 0)
(0.992752 0.00450054 0)
(0.997999 0.0057353 0)
(1.00555 0.00915808 0)
(1.01182 -0.000658125 0)
(1.00914 -0.00958222 0)
(0.99808 -0.0119472 0)
(0.995938 -0.0110402 0)
(0.987597 -0.010641 0)
(0.983524 0.00148124 0)
(0.984932 -0.000124525 0)
(0.985879 0.0123801 0)
(0.991373 0.0132424 0)
(0.996096 0.0133601 0)
(0.997319 0.014983 0)
(1.00066 0.012692 0)
(1.00206 0.0134437 0)
(1.00014 0.00177428 0)
(1.00148 0.000230345 0)
(1.00447 -0.00132703 0)
(0.996204 -0.00831506 0)
(0.992978 0.00436253 0)
(0.998162 0.00553251 0)
(1.00532 0.00872143 0)
(1.01136 -0.000576861 0)
(1.0088 -0.00936712 0)
(0.998088 -0.0114054 0)
(0.995983 -0.0107595 0)
(0.988126 -0.0101189 0)
(0.9839 0.00130955 0)
(0.985432 0.000273763 0)
(0.986374 0.0115416 0)
(0.991347 0.0132122 0)
(0.996073 0.012811 0)
(0.99722 0.0147344 0)
(1.00047 0.0128081 0)
(1.00208 0.0130088 0)
(1.00007 0.00173265 0)
(1.00152 0.000189341 0)
(1.00424 -0.00126841 0)
(0.99642 -0.00801267 0)
(0.99319 0.0042104 0)
(0.998345 0.00534151 0)
(1.00508 0.00826986 0)
(1.01093 -0.000481546 0)
(1.00844 -0.00915978 0)
(0.998106 -0.0108544 0)
(0.996008 -0.0104664 0)
(0.988664 -0.009609 0)
(0.984284 0.00117279 0)
(0.985956 0.000633446 0)
(0.986932 0.0107624 0)
(0.99142 0.0131213 0)
(0.996103 0.012336 0)
(0.997229 0.0144086 0)
(1.0003 0.0129185 0)
(1.00213 0.0126088 0)
(0.999974 0.00168873 0)
(1.00158 0.000153146 0)
(1.00398 -0.00121638 0)
(0.996652 -0.00769887 0)
(0.993389 0.00404351 0)
(0.998539 0.00516414 0)
(1.00483 0.00780296 0)
(1.0105 -0.000371192 0)
(1.00807 -0.00895908 0)
(0.998132 -0.0103007 0)
(0.99602 -0.0101446 0)
(0.989212 -0.00913694 0)
(0.984675 0.00106678 0)
(0.986487 0.000960516 0)
(0.987523 0.0100284 0)
(0.99155 0.0129915 0)
(0.996149 0.0119188 0)
(0.99731 0.0140079 0)
(1.00014 0.0130147 0)
(1.00217 0.0122611 0)
(0.999871 0.00164204 0)
(1.00165 0.000123415 0)
(1.00372 -0.00117166 0)
(0.99689 -0.00737391 0)
(0.99358 0.00386051 0)
(0.998732 0.00500143 0)
(1.00459 0.00732195 0)
(1.01008 -0.000250051 0)
(1.00769 -0.00876032 0)
(0.998162 -0.00975176 0)
(0.996025 -0.00979322 0)
(0.989764 -0.00870423 0)
(0.98508 0.000986108 0)
(0.987007 0.00126261 0)
(0.988133 0.00933968 0)
(0.991716 0.0128133 0)
(0.996192 0.0115632 0)
(0.997438 0.013548 0)
(0.999991 0.0130849 0)
(1.00219 0.0119768 0)
(0.999771 0.00159255 0)
(1.00172 0.00010044 0)
(1.00346 -0.00113625 0)
(0.997121 -0.00703604 0)
(0.993774 0.00366071 0)
(0.998911 0.00485099 0)
(1.00435 0.00683499 0)
(1.00965 -0.00012711 0)
(1.00732 -0.00855579 0)
(0.998191 -0.00921986 0)
(0.996031 -0.00940704 0)
(0.990315 -0.00829794 0)
(0.985503 0.000935953 0)
(0.987509 0.00153902 0)
(0.988757 0.00869287 0)
(0.991904 0.0125893 0)
(0.996226 0.011282 0)
(0.997598 0.0130331 0)
(0.999853 0.0130983 0)
(1.00216 0.011763 0)
(0.999685 0.0015404 0)
(1.00176 8.56444e-05 0)
(1.00322 -0.00111264 0)
(0.997337 -0.00668488 0)
(0.993981 0.00344595 0)
(0.999067 0.00471123 0)
(1.00414 0.0063441 0)
(1.0092 -1.02637e-06 0)
(1.00697 -0.0083378 0)
(0.998218 -0.00871314 0)
(0.996042 -0.00898136 0)
(0.990862 -0.00791489 0)
(0.985953 0.000904316 0)
(0.987984 0.00180638 0)
(0.989394 0.00808731 0)
(0.992117 0.0123201 0)
(0.996247 0.0110681 0)
(0.997776 0.012481 0)
(0.999744 0.0130332 0)
(1.00208 0.0116255 0)
(0.999621 0.00148482 0)
(1.00179 8.02689e-05 0)
(1.00299 -0.00110076 0)
(0.997532 -0.00632413 0)
(0.994208 0.00322119 0)
(0.999197 0.00457884 0)
(1.00394 0.00585189 0)
(1.00875 0.000117309 0)
(1.00662 -0.0080953 0)
(0.998242 -0.00823949 0)
(0.996063 -0.00851331 0)
(0.991399 -0.00755668 0)
(0.986432 0.000874132 0)
(0.98843 0.00207158 0)
(0.990038 0.00751865 0)
(0.992355 0.0120051 0)
(0.996256 0.0109075 0)
(0.997965 0.0119186 0)
(0.999675 0.0128712 0)
(1.00196 0.0115726 0)
(0.999581 0.00142726 0)
(1.00179 8.26024e-05 0)
(1.00279 -0.00110002 0)
(0.997705 -0.00595508 0)
(0.994455 0.00298583 0)
(0.999302 0.00445533 0)
(1.00376 0.00536754 0)
(1.00828 0.000214196 0)
(1.00629 -0.00782807 0)
(0.998266 -0.00779748 0)
(0.996091 -0.00801333 0)
(0.991925 -0.00721399 0)
(0.986944 0.000838653 0)
(0.988847 0.00233649 0)
(0.990684 0.00698397 0)
(0.992626 0.011647 0)
(0.996252 0.0107996 0)
(0.998151 0.0113806 0)
(0.99966 0.0125921 0)
(1.0018 0.0115824 0)
(0.999563 0.00136633 0)
(1.00177 9.53106e-05 0)
(1.00262 -0.00111037 0)
(0.997859 -0.00557902 0)
(0.99472 0.00274181 0)
(0.999388 0.00433313 0)
(1.00359 0.00489718 0)
(1.00782 0.00029165 0)
(1.00597 -0.0075344 0)
(0.99829 -0.00739201 0)
(0.996124 -0.00749457 0)
(0.992437 -0.00687095 0)
(0.987489 0.000796806 0)
(0.989241 0.00259921 0)
(0.991321 0.00650498 0)
(0.992935 0.0112317 0)
(0.996239 0.0107244 0)
(0.998322 0.0108959 0)
(0.999702 0.0121993 0)
(1.00162 0.011598 0)
(0.999561 0.00130206 0)
(1.00173 0.000118178 0)
(1.00246 -0.0011301 0)
(0.997997 -0.00519934 0)
(0.994998 0.00249558 0)
(0.999461 0.00420435 0)
(1.00342 0.00444921 0)
(1.00734 0.000345376 0)
(1.00566 -0.00721484 0)
(0.998317 -0.00701609 0)
(0.996161 -0.0069522 0)
(0.992935 -0.00652381 0)
(0.988064 0.000754793 0)
(0.989617 0.0028526 0)
(0.991939 0.00608714 0)
(0.993286 0.0107552 0)
(0.996224 0.0106574 0)
(0.998463 0.0104828 0)
(0.999796 0.0117189 0)
(1.00145 0.0115586 0)
(0.999571 0.00123617 0)
(1.00168 0.000148763 0)
(1.00231 -0.00115665 0)
(0.998124 -0.00482193 0)
(0.995281 0.00225347 0)
(0.999526 0.00406524 0)
(1.00327 0.00403617 0)
(1.00688 0.000371917 0)
(1.00535 -0.00686809 0)
(0.998351 -0.0066623 0)
(0.996199 -0.0064051 0)
(0.993414 -0.00616158 0)
(0.988668 0.000695639 0)
(0.989983 0.003108 0)
(0.992527 0.00573321 0)
(0.993679 0.0102335 0)
(0.996218 0.0105792 0)
(0.998566 0.0101536 0)
(0.999931 0.0111915 0)
(1.00131 0.0114183 0)
(0.999586 0.00116772 0)
(1.00162 0.00018676 0)
(1.00217 -0.00118706 0)
(0.998244 -0.00445257 0)
(0.995566 0.00202417 0)
(0.999587 0.00390979 0)
(1.00311 0.00365469 0)
(1.00641 0.000373891 0)
(1.00504 -0.00650991 0)
(0.998392 -0.00633069 0)
(0.996239 -0.00585852 0)
(0.993872 -0.00578035 0)
(0.989295 0.000621811 0)
(0.990346 0.00334299 0)
(0.99308 0.00545002 0)
(0.99411 0.00968205 0)
(0.996233 0.0104656 0)
(0.998626 0.00990038 0)
(1.00009 0.0106643 0)
(1.00124 0.0111566 0)
(0.999605 0.0010981 0)
(1.00155 0.000227548 0)
(1.00203 -0.00121843 0)
(0.998359 -0.00409665 0)
(0.995847 0.00181742 0)
(0.999643 0.00373278 0)
(1.00296 0.00330209 0)
(1.00596 0.000353963 0)
(1.00473 -0.00614555 0)
(0.998443 -0.00601813 0)
(0.996282 -0.00532176 0)
(0.994307 -0.00537552 0)
(0.989942 0.000548307 0)
(0.990713 0.00354838 0)
(0.993591 0.00523646 0)
(0.994572 0.00910735 0)
(0.996279 0.0102991 0)
(0.998645 0.00970861 0)
(1.00024 0.0101835 0)
(1.00123 0.0107939 0)
(0.999625 0.00102798 0)
(1.00148 0.000272308 0)
(1.0019 -0.00124664 0)
(0.998472 -0.00376206 0)
(0.996123 0.00163322 0)
(0.999694 0.00353497 0)
(1.00281 0.00298182 0)
(1.00551 0.000325438 0)
(1.00442 -0.00576878 0)
(0.998504 -0.00572115 0)
(0.996332 -0.0048018 0)
(0.994717 -0.0049464 0)
(0.990603 0.000478257 0)
(0.991087 0.0037254 0)
(0.994057 0.00508447 0)
(0.995055 0.00853151 0)
(0.996367 0.0100782 0)
(0.998633 0.00955222 0)
(1.00037 0.00976387 0)
(1.00127 0.0103715 0)
(0.999646 0.000957813 0)
(1.0014 0.000318038 0)
(1.00177 -0.00125954 0)
(0.998582 -0.0034609 0)
(0.996393 0.00147357 0)
(0.999742 0.0033199 0)
(1.00266 0.00267805 0)
(1.00508 0.000292598 0)
(1.00412 -0.00538351 0)
(0.998576 -0.00542906 0)
(0.996392 -0.00429919 0)
(0.995101 -0.00449348 0)
(0.991274 0.000414992 0)
(0.991471 0.00386275 0)
(0.994477 0.00498799 0)
(0.99555 0.00796931 0)
(0.996502 0.00980377 0)
(0.998599 0.00941333 0)
(1.00046 0.00940024 0)
(1.00135 0.00993228 0)
(0.999666 0.000888632 0)
(1.00132 0.000359558 0)
(1.00164 -0.00124701 0)
(0.998689 -0.00319704 0)
(0.996655 0.00133427 0)
(0.999784 0.00309766 0)
(1.00251 0.0023853 0)
(1.00466 0.000252192 0)
(1.00381 -0.00499045 0)
(0.998656 -0.00514406 0)
(0.996464 -0.00382322 0)
(0.995458 -0.00401661 0)
(0.991949 0.000368109 0)
(0.99187 0.003956 0)
(0.99485 0.00494525 0)
(0.996044 0.00743354 0)
(0.996688 0.00946638 0)
(0.998556 0.00928186 0)
(1.00052 0.00908419 0)
(1.00145 0.00950916 0)
(0.999686 0.000821947 0)
(1.00123 0.000393867 0)
(1.00151 -0.00120283 0)
(0.998794 -0.00296712 0)
(0.996911 0.00120301 0)
(0.99982 0.00288109 0)
(1.00236 0.00210084 0)
(1.00426 0.000203775 0)
(1.00351 -0.00459464 0)
(0.998744 -0.00485397 0)
(0.996553 -0.00337419 0)
(0.995789 -0.00352359 0)
(0.992622 0.000343222 0)
(0.99229 0.00400446 0)
(0.995178 0.00494242 0)
(0.996526 0.00693925 0)
(0.996927 0.00906318 0)
(0.998516 0.00914283 0)
(1.00054 0.00880777 0)
(1.00156 0.0091043 0)
(0.999706 0.000759841 0)
(1.00115 0.000418335 0)
(1.00138 -0.00113113 0)
(0.998896 -0.00276106 0)
(0.99716 0.00106451 0)
(0.999849 0.0026794 0)
(1.00221 0.00183776 0)
(1.00387 0.000149938 0)
(1.00321 -0.00419151 0)
(0.998835 -0.00454663 0)
(0.996657 -0.00295457 0)
(0.996094 -0.00303063 0)
(0.993286 0.000333168 0)
(0.992733 0.00400367 0)
(0.995468 0.00495847 0)
(0.99698 0.00649473 0)
(0.997219 0.00860653 0)
(0.998496 0.00898406 0)
(1.00052 0.00857633 0)
(1.00165 0.0087161 0)
(0.999725 0.000699145 0)
(1.00107 0.000435716 0)
(1.00125 -0.00104727 0)
(0.998991 -0.00256572 0)
(0.997402 0.000910915 0)
(0.999873 0.00248733 0)
(1.00206 0.00161166 0)
(1.00351 9.71464e-05 0)
(1.00292 -0.00378397 0)
(0.99893 -0.00422402 0)
(0.996779 -0.00257108 0)
(0.996374 -0.00255247 0)
(0.993933 0.000334359 0)
(0.993199 0.00394087 0)
(0.995725 0.00497446 0)
(0.997396 0.00611436 0)
(0.997556 0.00811003 0)
(0.998508 0.00878206 0)
(1.00047 0.00839222 0)
(1.00172 0.00835909 0)
(0.999743 0.00064039 0)
(1.00098 0.000439369 0)
(1.00113 -0.000951549 0)
(0.999078 -0.00236898 0)
(0.997636 0.000749601 0)
(0.999896 0.00229271 0)
(1.00192 0.00142875 0)
(1.00318 6.31735e-05 0)
(1.00264 -0.00337506 0)
(0.999029 -0.00387803 0)
(0.996921 -0.00222631 0)
(0.996632 -0.00209299 0)
(0.994554 0.00035795 0)
(0.993688 0.00383043 0)
(0.995962 0.00498048 0)
(0.997762 0.00580833 0)
(0.997923 0.00759996 0)
(0.998569 0.00851921 0)
(1.00039 0.00823731 0)
(1.00176 0.00804621 0)
(0.99976 0.000588334 0)
(1.0009 0.000422073 0)
(1.001 -0.000850336 0)
(0.999155 -0.00216399 0)
(0.997862 0.000590568 0)
(0.999921 0.00209511 0)
(1.00178 0.00127952 0)
(1.00286 4.14163e-05 0)
(1.00238 -0.00296955 0)
(0.999128 -0.00351442 0)
(0.997079 -0.00191206 0)
(0.996874 -0.00166559 0)
(0.995146 0.000395793 0)
(0.994196 0.00367855 0)
(0.996189 0.00495566 0)
(0.998077 0.00556219 0)
(0.998303 0.0071009 0)
(0.998684 0.00819201 0)
(1.00031 0.0080815 0)
(1.00175 0.00778616 0)
(0.999777 0.000542175 0)
(1.00083 0.00038116 0)
(1.00089 -0.000744095 0)
(0.999223 -0.00195002 0)
(0.998077 0.00043687 0)
(0.99995 0.00188762 0)
(1.00165 0.00115096 0)
(1.00257 2.44469e-05 0)
(1.00213 -0.00257352 0)
(0.999227 -0.00312593 0)
(0.997253 -0.00160727 0)
(0.9971 -0.00127071 0)
(0.995704 0.000450535 0)
(0.994721 0.00350642 0)
(0.99642 0.00490652 0)
(0.998343 0.00536826 0)
(0.998682 0.00663551 0)
(0.998858 0.00781463 0)
(1.00024 0.00790055 0)
(1.00171 0.00757186 0)
(0.999792 0.00049525 0)
(1.00076 0.000340709 0)
(1.00078 -0.000668227 0)
(0.999282 -0.00172648 0)
(0.998281 0.000299961 0)
(0.999984 0.00167749 0)
(1.00153 0.0010161 0)
(1.00231 1.71257e-05 0)
(1.00191 -0.00218935 0)
(0.999324 -0.00271089 0)
(0.997434 -0.00130589 0)
(0.997313 -0.000896654 0)
(0.996227 0.000537865 0)
(0.995259 0.00332804 0)
(0.996663 0.0048304 0)
(0.998566 0.00522022 0)
(0.999046 0.0062232 0)
(0.999083 0.0074138 0)
(1.0002 0.00768672 0)
(1.00164 0.00738836 0)
(0.999808 0.000448308 0)
(1.00069 0.000298893 0)
(1.00069 -0.000611445 0)
(0.999339 -0.00150608 0)
(0.99847 0.00017827 0)
(1.00002 0.00147004 0)
(1.00142 0.000947752 0)
(1.00209 4.66014e-05 0)
(1.00171 -0.00184088 0)
(0.999413 -0.00232828 0)
(0.997615 -0.0010353 0)
(0.99751 -0.000550622 0)
(0.996708 0.000649531 0)
(0.9958 0.00314499 0)
(0.996932 0.00471509 0)
(0.998763 0.00509988 0)
(0.999392 0.00586188 0)
(0.999357 0.00699664 0)
(1.00022 0.00743157 0)
(1.00155 0.00720941 0)
(0.999821 0.000406708 0)
(1.00063 0.000255042 0)
(1.0006 -0.000569643 0)
(0.999384 -0.00129747 0)
(0.998646 0.000141348 0)
(1.00007 0.00130715 0)
(1.00133 0.000909064 0)
(1.00188 7.27232e-05 0)
(1.00153 -0.00154406 0)
(0.999498 -0.00200737 0)
(0.997804 -0.000790148 0)
(0.997703 -0.000232924 0)
(0.997151 0.000773715 0)
(0.99634 0.00296859 0)
(0.99723 0.00456106 0)
(0.998941 0.00498867 0)
(0.999706 0.00555315 0)
(0.999662 0.00657566 0)
(1.00028 0.00714058 0)
(1.00148 0.00701919 0)
(0.999836 0.00036443 0)
(1.00057 0.000218507 0)
(1.00053 -0.000545664 0)
(0.999438 -0.00107921 0)
(0.998814 0.000171807 0)
(1.00012 0.00116512 0)
(1.00125 0.000831429 0)
(1.00169 8.2693e-05 0)
(1.00137 -0.00130502 0)
(0.999594 -0.00172688 0)
(0.998014 -0.000567987 0)
(0.997898 6.42201e-05 0)
(0.997555 0.00091456 0)
(0.996864 0.00281557 0)
(0.99755 0.00438172 0)
(0.999108 0.00487581 0)
(0.999979 0.00530179 0)
(0.999978 0.00617481 0)
(1.0004 0.00682443 0)
(1.00142 0.00681373 0)
(0.999849 0.000322468 0)
(1.00052 0.000190267 0)
(1.00047 -0.000516469 0)
(0.999493 -0.000876094 0)
(0.998966 0.000204157 0)
(1.00017 0.00103206 0)
(1.00118 0.000760612 0)
(1.00153 0.000109485 0)
(1.00123 -0.00107948 0)
(0.999698 -0.00145319 0)
(0.998242 -0.00036198 0)
(0.9981 0.000335655 0)
(0.997925 0.00107629 0)
(0.997366 0.00269964 0)
(0.997891 0.00419441 0)
(0.999276 0.00475236 0)
(1.00021 0.00509422 0)
(1.00029 0.00580695 0)
(1.00057 0.00648801 0)
(1.0014 0.00658942 0)
(0.999863 0.000282747 0)
(1.00047 0.000175118 0)
(1.00043 -0.000496243 0)
(0.999555 -0.000713347 0)
(0.999107 0.00025945 0)
(1.00022 0.000931821 0)
(1.00112 0.000691977 0)
(1.00139 0.000150387 0)
(1.00111 -0.000831394 0)
(0.999804 -0.00117513 0)
(0.998478 -0.000176097 0)
(0.998307 0.000562381 0)
(0.998263 0.00123466 0)
(0.997841 0.00260552 0)
(0.998247 0.00399647 0)
(0.999455 0.0046098 0)
(1.00042 0.00491507 0)
(1.00059 0.00548158 0)
(1.00077 0.00614523 0)
(1.00142 0.00634671 0)
(0.999876 0.000243354 0)
(1.00042 0.000167676 0)
(1.00039 -0.000474389 0)
(0.999623 -0.000582525 0)
(0.999238 0.000323892 0)
(1.00025 0.000853948 0)
(1.00107 0.000636558 0)
(1.00127 0.000197113 0)
(1.00101 -0.000594121 0)
(0.999906 -0.000911285 0)
(0.99872 -1.67228e-05 0)
(0.998526 0.00075125 0)
(0.998576 0.00138321 0)
(0.998284 0.00254028 0)
(0.998611 0.00380491 0)
(0.999651 0.00445004 0)
(1.0006 0.0047507 0)
(1.00087 0.00519475 0)
(1.00101 0.00580491 0)
(1.00148 0.00607886 0)
(0.999888 0.000207781 0)
(1.00037 0.000166207 0)
(1.00036 -0.000449237 0)
(0.999697 -0.000483309 0)
(0.999362 0.000389808 0)
(1.00029 0.000815068 0)
(1.00104 0.000594902 0)
(1.00118 0.000232156 0)
(1.00093 -0.000378349 0)
(1.00001 -0.000657649 0)
(0.998964 0.000131485 0)
(0.998753 0.000904375 0)
(0.99887 0.00150945 0)
(0.998695 0.00249376 0)
(0.998973 0.00362719 0)
(0.999863 0.00427582 0)
(1.00078 0.00459361 0)
(1.00112 0.00494794 0)
(1.00125 0.00548545 0)
(1.00158 0.00579993 0)
(0.9999 0.000175663 0)
(1.00033 0.000166231 0)
(1.00034 -0.000416397 0)
(0.999779 -0.000400703 0)
(0.999484 0.000451004 0)
(1.00032 0.0007974 0)
(1.00101 0.000563069 0)
(1.00111 0.000264578 0)
(1.00087 -0.000180529 0)
(1.0001 -0.00040806 0)
(0.999205 0.000276285 0)
(0.998987 0.00103025 0)
(0.999149 0.00161923 0)
(0.999079 0.00245933 0)
(0.99933 0.00346931 0)
(1.00009 0.0041004 0)
(1.00095 0.00443605 0)
(1.00135 0.00473048 0)
(1.00149 0.00518674 0)
(1.00171 0.00551394 0)
(0.999911 0.000148769 0)
(1.00028 0.000168594 0)
(1.00031 -0.000365089 0)
(0.999866 -0.000335676 0)
(0.999604 0.000491213 0)
(1.00034 0.000790685 0)
(1.00098 0.000552296 0)
(1.00106 0.000298695 0)
(1.00084 -1.82331e-06 0)
(1.0002 -0.000169805 0)
(0.999439 0.000419805 0)
(0.999227 0.00113476 0)
(0.999414 0.00171012 0)
(0.999432 0.00243065 0)
(0.999675 0.00332289 0)
(1.00033 0.00392456 0)
(1.00112 0.00426931 0)
(1.00156 0.00452998 0)
(1.00173 0.00491382 0)
(1.00187 0.00523107 0)
(0.99992 0.000127342 0)
(1.00025 0.000175686 0)
(1.0003 -0.000288682 0)
(0.999953 -0.000283933 0)
(0.999723 0.000502058 0)
(1.00036 0.000793678 0)
(1.00095 0.000562994 0)
(1.00103 0.000334368 0)
(1.00082 0.00015044 0)
(1.00029 4.93147e-05 0)
(0.999662 0.000564573 0)
(0.999468 0.00122185 0)
(0.99967 0.00177775 0)
(0.99976 0.00240865 0)
(1.00001 0.00319322 0)
(1.00057 0.00375724 0)
(1.0013 0.00410438 0)
(1.00175 0.00434339 0)
(1.00195 0.0046701 0)
(1.00205 0.00495453 0)
(0.999929 0.000110584 0)
(1.00021 0.000186862 0)
(1.00028 -0.000198312 0)
(1.00003 -0.000234944 0)
(0.999843 0.000489322 0)
(1.00038 0.000795636 0)
(1.00093 0.000590803 0)
(1.00102 0.000375339 0)
(1.00083 0.000283795 0)
(1.00038 0.00024969 0)
(0.999873 0.00070796 0)
(0.999702 0.00130471 0)
(0.999917 0.00182905 0)
(1.00006 0.00238273 0)
(1.00032 0.00307464 0)
(1.00082 0.00359321 0)
(1.00148 0.0039396 0)
(1.00193 0.00416114 0)
(1.00215 0.00444675 0)
(1.00223 0.00468887 0)
(0.999937 0.000101049 0)
(1.00019 0.000193707 0)
(1.00026 -0.00010801 0)
(1.00011 -0.000180552 0)
(0.99996 0.000467237 0)
(1.00041 0.000794723 0)
(1.0009 0.000633919 0)
(1.00101 0.000425896 0)
(1.00085 0.00039948 0)
(1.00048 0.000423052 0)
(1.00007 0.000836827 0)
(0.999929 0.00138005 0)
(1.00015 0.00187358 0)
(1.00035 0.00235142 0)
(1.00061 0.00296166 0)
(1.00106 0.00343539 0)
(1.00166 0.00377485 0)
(1.0021 0.0039844 0)
(1.00234 0.00423996 0)
(1.00241 0.00444602 0)
(0.999943 9.6024e-05 0)
(1.00016 0.000198211 0)
(1.00024 -2.27736e-05 0)
(1.00017 -0.000114853 0)
(1.00008 0.000441278 0)
(1.00045 0.000786598 0)
(1.00088 0.000684714 0)
(1.001 0.000492376 0)
(1.00088 0.000499864 0)
(1.00059 0.000569016 0)
(1.00026 0.000952296 0)
(1.00015 0.00144188 0)
(1.00037 0.00191105 0)
(1.0006 0.00232495 0)
(1.00089 0.00285472 0)
(1.00129 0.00328692 0)
(1.00184 0.00361125 0)
(1.00227 0.00380934 0)
(1.00251 0.0040411 0)
(1.00257 0.00422171 0)
(0.999948 9.58172e-05 0)
(1.00015 0.000199408 0)
(1.00022 5.62305e-05 0)
(1.00023 -3.873e-05 0)
(1.00018 0.000420777 0)
(1.00049 0.000768869 0)
(1.00087 0.000737606 0)
(1.001 0.000568075 0)
(1.00093 0.000594204 0)
(1.00069 0.000691001 0)
(1.00044 0.00105382 0)
(1.00036 0.00149455 0)
(1.00058 0.00193289 0)
(1.00084 0.00230122 0)
(1.00115 0.0027567 0)
(1.00152 0.00314403 0)
(1.00201 0.00345431 0)
(1.00243 0.00363635 0)
(1.00267 0.00384848 0)
(1.00273 0.00401255 0)
(0.999952 9.81971e-05 0)
(1.00014 0.000201279 0)
(1.00021 0.000127081 0)
(1.00027 4.44868e-05 0)
(1.00029 0.000413781 0)
(1.00054 0.000745342 0)
(1.00086 0.000785561 0)
(1.001 0.000649789 0)
(1.00097 0.000686438 0)
(1.0008 0.000794506 0)
(1.00062 0.00113609 0)
(1.00056 0.00154032 0)
(1.00078 0.00194523 0)
(1.00105 0.00227246 0)
(1.00138 0.00266925 0)
(1.00174 0.00300494 0)
(1.00219 0.00330175 0)
(1.00258 0.00347006 0)
(1.00283 0.00365919 0)
(1.00287 0.00381351 0)
(0.999955 0.000101881 0)
(1.00013 0.000206554 0)
(1.00021 0.000185826 0)
(1.00031 0.000130584 0)
(1.00038 0.000421329 0)
(1.0006 0.000721946 0)
(1.00087 0.000824152 0)
(1.00101 0.000734049 0)
(1.00102 0.00077991 0)
(1.00091 0.000888923 0)
(1.00079 0.00120093 0)
(1.00076 0.00156958 0)
(1.00096 0.00195324 0)
(1.00125 0.00223782 0)
(1.00159 0.00258471 0)
(1.00194 0.00287289 0)
(1.00235 0.00314698 0)
(1.00272 0.00331156 0)
(1.00297 0.00347392 0)
(1.003 0.00361904 0)
(0.999957 0.0001069 0)
(1.00013 0.000215315 0)
(1.00021 0.00023422 0)
(1.00034 0.000211981 0)
(1.00045 0.000445589 0)
(1.00067 0.000704473 0)
(1.00089 0.000851754 0)
(1.00103 0.000812719 0)
(1.00107 0.000871118 0)
(1.00101 0.000975287 0)
(1.00095 0.0012581 0)
(1.00094 0.00158153 0)
(1.00114 0.00194701 0)
(1.00143 0.00220336 0)
(1.00178 0.00250074 0)
(1.00213 0.00275186 0)
(1.00252 0.00299457 0)
(1.00286 0.00315505 0)
(1.00311 0.00329768 0)
(1.00313 0.00342572 0)
(0.999959 0.000111331 0)
(1.00012 0.000229652 0)
(1.00021 0.000274912 0)
(1.00038 0.000285758 0)
(1.00052 0.000482279 0)
(1.00073 0.000697127 0)
(1.00093 0.000871573 0)
(1.00105 0.00088224 0)
(1.00112 0.000957257 0)
(1.0011 0.00105233 0)
(1.00109 0.00130987 0)
(1.00112 0.00158974 0)
(1.00132 0.00192239 0)
(1.0016 0.00216316 0)
(1.00196 0.00242046 0)
(1.0023 0.00263524 0)
(1.00267 0.00285093 0)
(1.00299 0.0029964 0)
(1.00323 0.00312989 0)
(1.00325 0.00323674 0)
(0.99996 0.000115857 0)
(1.00012 0.000247506 0)
(1.00022 0.000311388 0)
(1.00041 0.000350331 0)
(1.00058 0.00052506 0)
(1.00079 0.000702808 0)
(1.00097 0.000888022 0)
(1.00108 0.000939102 0)
(1.00117 0.00103684 0)
(1.00119 0.00112433 0)
(1.00123 0.00135167 0)
(1.00128 0.00159815 0)