/*--------------------------------*- C++ -*----------------------------------*\
| =========                 |                                                 |
| \\      /  F ield         | OpenFOAM: The Open Source CFD Toolbox           |
|  \\    /   O peration     | Version:  3.0.1                                 |
|   \\  /    A nd           | Web:      www.OpenFOAM.org                      |
|    \\/     M anipulation  |                                                 |
\*---------------------------------------------------------------------------*/
FoamFile
{
    version     2.0;
    format      ascii;
    class       volScalarField;
    location    "3.8";
    object      p;
}
// * * * * * * * * * * * * * * * * * * * * * * * * * * * * * * * * * * * * * //

dimensions      [0 2 -2 0 0 0 0];

internalField   nonuniform List<scalar> 
9600
(
1.63983e-10
0.00176727
0.00199636
0.00201121
0.0018865
-8.3703e-05
0.000249871
-0.000307689
0.00110536
0.00445652
0.00594754
0.00562055
0.00698652
0.00918497
0.0110638
0.0131155
0.0159313
0.0187555
0.0255151
0.031166
-1.42681e-06
0.00177415
0.00199191
0.00200683
0.00188123
-7.63556e-05
0.00026198
-0.000306305
0.00111036
0.00443716
0.00594057
0.00562044
0.00697864
0.00919121
0.0110607
0.0131039
0.0159405
0.0187078
0.025574
0.0307176
-1.82492e-06
0.00178266
0.00198524
0.00200226
0.00187336
-6.66693e-05
0.000275911
-0.000306845
0.00111458
0.00440689
0.00592753
0.00562949
0.00696631
0.00920714
0.0110563
0.013096
0.0159383
0.0186593
0.0255631
0.0300669
-3.80726e-07
0.00179004
0.00197794
0.00200049
0.00185891
-5.46785e-05
0.000294564
-0.000309133
0.00112116
0.00437489
0.00591408
0.00565103
0.00695615
0.00922774
0.0110551
0.0130839
0.015932
0.0186138
0.0254633
0.0294898
3.02539e-06
0.00179599
0.00197042
0.00199974
0.00183791
-4.02018e-05
0.000317858
-0.00031132
0.00113586
0.00434216
0.00590398
0.00568135
0.00695117
0.00925024
0.0110572
0.013068
0.0159254
0.0185556
0.0253233
0.0289443
8.25451e-06
0.00180055
0.00196333
0.00199942
0.00181276
-2.29104e-05
0.000345417
-0.000309771
0.00116013
0.004308
0.0058971
0.00571825
0.00695156
0.00927341
0.0110625
0.0130489
0.0159129
0.0184921
0.0251421
0.0284216
1.48682e-05
0.00180387
0.00195679
0.00200021
0.00178672
-2.41993e-06
0.000376889
-0.000302239
0.00119306
0.00427271
0.00589231
0.00575977
0.00695661
0.00929628
0.0110699
0.0130267
0.0158931
0.0184244
0.0249175
0.027914
2.23591e-05
0.00180639
0.00195064
0.00200292
0.00176256
2.16547e-05
0.000411993
-0.000288088
0.00123378
0.00423711
0.00588886
0.00580385
0.00696526
0.00931767
0.0110777
0.0130023
0.0158635
0.0183519
0.0246503
0.0274157
3.03652e-05
0.0018086
0.00194459
0.00200803
0.00174196
4.94244e-05
0.000450509
-0.00026744
0.00128149
0.00420191
0.00588601
0.00584833
0.00697593
0.00933656
0.0110845
0.0129764
0.0158217
0.0182733
0.0243435
0.0269198
3.8698e-05
0.00181082
0.00193839
0.00201546
0.00172565
8.05112e-05
0.00049219
-0.000240539
0.00133505
0.00416777
0.00588301
0.00589103
0.00698683
0.0093525
0.0110887
0.0129491
0.0157661
0.0181876
0.0240004
0.0264194
4.72875e-05
0.00181323
0.00193198
0.00202471
0.00171322
0.000114115
0.000536634
-0.000207544
0.00139337
0.0041355
0.00587924
0.00593016
0.00699631
0.00936539
0.0110885
0.0129206
0.0156957
0.0180928
0.0236251
0.025908
5.61248e-05
0.00181593
0.00192545
0.00203506
0.00170364
0.000149273
0.000583316
-0.000168669
0.00145546
0.00410594
0.00587427
0.00596462
0.00700308
0.00937553
0.0110825
0.0128909
0.01561
0.0179852
0.0232228
0.0253814
6.52212e-05
0.00181895
0.00191895
0.00204586
0.00169593
0.000185142
0.000631772
-0.000124394
0.00152026
0.00407961
0.00586771
0.00599424
0.00700617
0.00938343
0.0110699
0.0128594
0.0155095
0.0178603
0.0227992
0.0248384
7.45964e-05
0.00182227
0.00191264
0.0020566
0.00168952
0.000221156
0.000681714
-7.55493e-05
0.00158662
0.00405675
0.00585919
0.00601959
0.007005
0.00938967
0.0110501
0.0128244
0.0153955
0.0177137
0.0223593
0.0242799
8.42774e-05
0.00182587
0.00190663
0.00206698
0.00168417
0.000256962
0.000733029
-2.30776e-05
0.00165354
0.00403742
0.00584833
0.00604164
0.00699903
0.00939471
0.0110231
0.0127835
0.01527
0.0175417
0.0219057
0.0237082
9.42942e-05
0.00182971
0.00190098
0.00207673
0.00167985
0.000292325
0.000785649
3.22333e-05
0.00172027
0.00402161
0.00583468
0.00606152
0.00698792
0.00939863
0.0109894
0.0127338
0.0151358
0.0173425
0.0214389
0.023127
0.000104686
0.00183372
0.00189578
0.00208566
0.0016766
0.000327079
0.000839488
8.98514e-05
0.00178621
0.00400943
0.00581773
0.0060801
0.00697162
0.00940097
0.0109498
0.0126716
0.0149945
0.017116
0.0209588
0.0225409
0.000115509
0.00183785
0.00189109
0.00209356
0.00167455
0.000361088
0.000894419
0.000149484
0.00185084
0.00400106
0.00579693
0.006098
0.00695022
0.00940107
0.0109056
0.0125934
0.0148469
0.0168637
0.0204635
0.0219543
0.000126829
0.001842
0.001887
0.00210025
0.00167387
0.000394258
0.000950248
0.000211002
0.00191359
0.00399675
0.00577185
0.00611566
0.00692393
0.00939758
0.0108588
0.012496
0.0146924
0.0165889
0.0199505
0.0213701
0.000138728
0.00184606
0.0018836
0.00210558
0.00167476
0.000426568
0.00100671
0.00027439
0.00197382
0.00399681
0.00574217
0.00613309
0.0068935
0.00938823
0.0108113
0.0123778
0.0145284
0.0162971
0.0194172
0.0207877
0.000151301
0.00184987
0.00188099
0.00210939
0.00167741
0.000458056
0.00106346
0.000339765
0.00203084
0.00400147
0.0057075
0.00614994
0.00686015
0.00937062
0.0107644
0.0122383
0.0143509
0.015994
0.0188628
0.0202048
0.000164649
0.0018533
0.0018793
0.00211153
0.00168192
0.000488792
0.00112011
0.000407367
0.00208389
0.00401081
0.00566781
0.00616551
0.00682537
0.00934212
0.0107184
0.0120785
0.0141549
0.0156846
0.0182901
0.0196173
0.000178883
0.00185617
0.00187868
0.00211184
0.00168838
0.000518897
0.00117619
0.000477491
0.00213226
0.00402484
0.00562345
0.00617862
0.00679071
0.00930029
0.0106725
0.0119008
0.0139354
0.0153723
0.0177048
0.0190193
0.000194131
0.00185828
0.00187925
0.00211022
0.00169684
0.000548549
0.00123114
0.000550426
0.00217549
0.00404331
0.00557511
0.00618776
0.00675732
0.00924328
0.0106252
0.0117086
0.0136886
0.0150577
0.0171136
0.0184058
0.00021052
0.00185947
0.00188115
0.00210656
0.00170728
0.000577992
0.00128437
0.000626464
0.00221309
0.00406584
0.00552383
0.00619097
0.00672641
0.00916992
0.0105735
0.0115063
0.0134123
0.0147385
0.0165225
0.0177747
0.000228182
0.00185955
0.00188466
0.0021008
0.00171959
0.000607532
0.00133531
0.000705855
0.00224468
0.00409189
0.00547065
0.00618585
0.00669906
0.00908029
0.0105134
0.0112979
0.0131067
0.0144117
0.0159375
0.0171245
0.000247258
0.00185833
0.00189089
0.00209294
0.00173355
0.000637514
0.00138336
0.000788763
0.00227019
0.00412044
0.00541709
0.00617025
0.00667512
0.00897561
0.0104406
0.0110861
0.0127729
0.0140743
0.0153644
0.0164551
0.00026789
0.00185568
0.00189723
0.00208302
0.00174889
0.000668305
0.00142788
0.000875247
0.00228978
0.00415003
0.00536487
0.00614232
0.00665345
0.00885783
0.0103514
0.0108732
0.0124137
0.0137209
0.0148092
0.0157714
0.000290198
0.00185148
0.00190482
0.00207115
0.0017653
0.000700292
0.00146839
0.000965181
0.00230385
0.00417888
0.0053154
0.00610086
0.00663227
0.00872963
0.0102425
0.0106601
0.0120331
0.0133455
0.014276
0.0150828
0.000314265
0.0018457
0.00191379
0.00205742
0.00178242
0.000733946
0.00150439
0.00105818
0.00231313
0.00420482
0.00527017
0.0060457
0.00660854
0.00859356
0.0101113
0.0104459
0.0116374
0.0129441
0.0137636
0.0144004
0.000340201
0.00183825
0.00192416
0.00204206
0.00179985
0.000769746
0.00153532
0.00115364
0.00231857
0.00422564
0.00523037
0.00597718
0.00657843
0.00845195
0.00995661
0.0102281
0.0112334
0.0125157
0.0132652
0.0137355
0.000368108
0.00182912
0.00193583
0.0020253
0.00181716
0.000808123
0.00156078
0.00125063
0.00232121
0.00423924
0.00519587
0.00589642
0.00653817
0.00830651
0.00977954
0.0100035
0.0108265
0.0120619
0.012773
0.0130967
0.000398022
0.00181832
0.00194883
0.00200736
0.00183375
0.000849539
0.00158055
0.00134803
0.00230735
0.00424338
0.00516593
0.00580591
0.00648355
0.0081571
0.00958234
0.00976904
0.0104195
0.0115873
0.0122808
0.0124873
0.000430022
0.00180574
0.00196323
0.0019886
0.00184886
0.000894515
0.00159446
0.0014447
0.00231054
0.00423633
0.00513954
0.00570837
0.00641125
0.00800215
0.00936775
0.00952289
0.0100134
0.011097
0.0117842
0.0119061
0.00046426
0.00179128
0.00197893
0.00196958
0.00186182
0.000943581
0.00160268
0.00153876
0.00231698
0.00421695
0.00511414
0.00560621
0.00632009
0.00783994
0.00913843
0.00926433
0.00960856
0.0105955
0.0112809
0.0113498
0.000500855
0.00177507
0.0019958
0.00195103
0.00187171
0.000997094
0.00160554
0.0016278
0.00232769
0.00418499
0.0050861
0.00550154
0.00620975
0.00766816
0.0088971
0.00899304
0.00920493
0.0100874
0.0107696
0.0108134
0.000539949
0.00175635
0.00201382
0.00193404
0.00187719
0.00105516
0.00160397
0.00170911
0.0023431
0.00414104
0.00505215
0.00539564
0.00608063
0.00748432
0.00864568
0.00870998
0.00880237
0.0095763
0.01025
0.010292
0.000581728
0.00173469
0.00203281
0.00192004
0.00187686
0.00111734
0.00159994
0.00177999
0.00236233
0.00408656
0.00500987
0.005289
0.0059338
0.00728679
0.00838534
0.00841711
0.00839995
0.00906361
0.00972397
0.00978221
0.000626329
0.0017101
0.00205215
0.00191098
0.00186988
0.00118224
0.00159588
0.00183812
0.0023838
0.00402362
0.00495705
0.00518137
0.00577006
0.00707415
0.00811761
0.00811677
0.00799721
0.00855022
0.00919332
0.00927964
0.000673825
0.00168273
0.00207049
0.00190876
0.00185612
0.00124732
0.00159427
0.00188224
0.00240483
0.00395414
0.00489214
0.00507274
0.0055905
0.0068445
0.00784231
0.00781103
0.00759541
0.00803722
0.00865853
0.00878117
0.000724163
0.0016529
0.00208609
0.00191505
0.00183619
0.00130881
0.00159743
0.00191301
0.00242131
0.003879
0.00481531
0.00491511
0.00539746
0.00659621
0.00755755
0.00750128
0.00719545
0.00752594
0.00811937
0.00828345
0.000777424
0.00162112
0.00209661
0.00193104
0.00181325
0.0013627
0.00160541
0.0019319
0.00242917
0.00379901
0.00472972
0.00479756
0.00519464
0.00632836
0.00726174
0.00719002
0.00679876
0.00701627
0.00757646
0.00778322
0.000833544
0.00158834
0.00209983
0.00195677
0.00179156
0.00140658
0.00161811
0.00193936
0.00242367
0.00371424
0.00463769
0.00468335
0.00498493
0.00604092
0.00695197
0.0068782
0.00640895
0.0065086
0.00703035
0.00727883
0.00089217
0.00155606
0.00209414
0.00199101
0.0017752
0.00143804
0.00163315
0.00193742
0.00240347
0.00362321
0.00453844
0.00457198
0.00477239
0.00573578
0.00662471
0.00656299
0.00603008
0.00600654
0.0064803
0.00676939
0.000953063
0.00152595
0.00207789
0.00203161
0.00176683
0.00145345
0.00164485
0.00193618
0.0023736
0.00352057
0.00442934
0.00446084
0.00456149
0.00541679
0.0062776
0.00624066
0.00566435
0.00551524
0.00592538
0.0062551
0.00101543
0.00149963
0.00205002
0.00207256
0.0017691
0.00145636
0.00165067
0.00193712
0.00233696
0.00340359
0.00430702
0.00434822
0.00435611
0.00508796
0.0059101
0.00590689
0.00531028
0.00504052
0.00536721
0.00573372
0.00107831
0.00147884
0.00201044
0.0021085
0.00178554
0.00145316
0.00164575
0.00193658
0.0022986
0.00327489
0.00416416
0.00422938
0.00415712
0.00475425
0.00552436
0.00555876
0.00496389
0.00458904
0.00481311
0.00520098
0.0011409
0.00146453
0.0019611
0.00213497
0.0018153
0.00144777
0.00162627
0.00193154
0.00226205
0.00313876
0.00400059
0.00409786
0.00396368
0.00442274
0.00512563
0.00519498
0.00462026
0.00416312
0.00427267
0.0046552
0.00120198
0.00145783
0.001905
0.00214762
0.00185491
0.0014455
0.00159369
0.00191681
0.00222688
0.00300121
0.00381835
0.00394938
0.00377383
0.00409789
0.0047185
0.00481488
0.00427359
0.00375939
0.0037557
0.00410224
0.00126044
0.00146
0.00184519
0.0021419
0.00189943
0.00145151
0.00155032
0.00188655
0.00219062
0.00286816
0.00362287
0.00378114
0.00358325
0.00378084
0.00430592
0.00442016
0.00392144
0.0033722
0.003268
0.00355363
0.0013155
0.00147091
0.00178653
0.00211481
0.00194017
0.00146882
0.00150111
0.0018385
0.00214944
0.00274089
0.00342103
0.00359412
0.00338634
0.00347178
0.00389277
0.00401356
0.0035637
0.00299677
0.00280843
0.00302206
0.00136672
0.00148987
0.00173328
0.00206342
0.00196729
0.0014974
0.00145452
0.00177391
0.00209568
0.00261717
0.00321838
0.00339041
0.00318037
0.00316988
0.00348374
0.00359779
0.00319954
0.00263035
0.00237327
0.00251555
0.00141353
0.00151539
0.0016878
0.00199184
0.00197477
0.0015348
0.00141756
0.00169521
0.00202302
0.00249332
0.00301791
0.00317579
0.00296583
0.00287437
0.00308153
0.00317538
0.00282717
0.00227114
0.001959
0.00203455
0.00145528
0.00154327
0.00165312
0.0019094
0.00195866
0.00157501
0.00139322
0.00160764
0.00192959
0.00236232
0.002819
0.00295538
0.00274384
0.00258493
0.00268809
0.00274912
0.00244592
0.0019171
0.00156428
0.00157765
0.00149194
0.00157085
0.00162965
0.00182294
0.00191782
0.0016078
0.00138048
0.00151992
0.00181742
0.00221768
0.00262029
0.00273194
0.00251591
0.00230126
0.00230618
0.00232289
0.00205595
0.00156443
0.00118785
0.00114525
0.00152384
0.0015943
0.00161635
0.00174059
0.00185345
0.00162339
0.00137636
0.00143857
0.00169102
0.00205648
0.00241636
0.00250654
0.00228459
0.00202349
0.0019387
0.00190146
0.00165852
0.00120935
0.000825832
0.000737468
0.00155138
0.00161242
0.00161035
0.00166636
0.00177047
0.00161596
0.00137535
0.00136623
0.00155905
0.00188087
0.00220144
0.00227736
0.00205208
0.00175265
0.0015868
0.00148955
0.00125669
0.00084982
0.00047326
0.000351967
0.00157506
0.00162473
0.00160612
0.00160247
0.00167677
0.00158306
0.00136862
0.00130237
0.00142855
0.00169462
0.00197476
0.00203991
0.0018175
0.0014893
0.00125187
0.00109213
0.000855135
0.000484884
0.000126106
-1.55031e-05
0.00159503
0.00163093
0.00159974
0.00154866
0.00158079
0.00152573
0.00134761
0.00124478
0.00130375
0.00150433
0.00173878
0.00179212
0.00157711
0.00123241
0.000935914
0.000713344
0.000459866
0.00011642
-0.000218915
-0.000369437
0.00161121
0.0016313
0.00158791
0.001503
0.0014883
0.00144733
0.00130714
0.00118763
0.00118614
0.00131641
0.0014964
0.00153514
0.00132905
0.000978065
0.000637589
0.000356512
7.69885e-05
-0.000251279
-0.000563946
-0.000713313
0.00162311
0.00162644
0.00156961
0.00146178
0.00140183
0.00135462
0.00124565
0.00112363
0.00107455
0.00113637
0.00125415
0.00127085
0.00107347
0.00072301
0.000353152
2.32572e-05
-0.000288204
-0.000612484
-0.000907663
-0.0010499
0.00163008
0.00161711
0.00154483
0.00142031
0.00132152
0.00125502
0.0011644
0.00104767
0.000965626
0.000965416
0.00101919
0.00100327
0.000810751
0.000466756
7.83851e-05
-0.000288563
-0.0006317
-0.000961081
-0.00124534
-0.00138061
0.00163155
0.00160362
0.00151419
0.00137486
0.00124547
0.00115391
0.00106651
0.000957295
0.000854762
0.000802274
0.000795488
0.00074074
0.000544077
0.000208555
-0.00018855
-0.00058267
-0.000953214
-0.0012929
-0.00157192
-0.00170308
0.00162692
0.00158588
0.00147822
0.001324
0.00117135
0.00105353
0.000957575
0.000852422
0.000738674
0.000645905
0.000583181
0.000488988
0.000280271
-5.05063e-05
-0.000448198
-0.00086024
-0.00125294
-0.00160526
-0.00188463
-0.00201461
0.00161199
0.00156316
0.00143787
0.0012678
0.00109614
0.000953986
0.000843176
0.000735431
0.000614669
0.00049396
0.000383151
0.000249421
2.62203e-05
-0.000305086
-0.00070205
-0.00112199
-0.00153105
-0.00189543
-0.00217848
-0.00231056
0.00159392
0.00153517
0.00139335
0.00120671
0.00101751
0.000854057
0.000726122
0.000609978
0.000482894
0.000343646
0.000196663
2.53878e-05
-0.000215236
-0.000548536
-0.000947265
-0.00137057
-0.00178911
-0.00216366
-0.00245029
-0.00258539
0.00156868
0.00150098
0.00134439
0.00114127
0.000935102
0.00075309
0.000607136
0.000479284
0.000345563
0.000193056
2.11384e-05
-0.00018008
-0.000439602
-0.000775267
-0.00117599
-0.00160293
-0.00202629
-0.00241073
-0.00270276
-0.00284029
0.00153622
0.00146095
0.00129004
0.00107133
0.000848838
0.000650466
0.000487427
0.000345791
0.000204861
4.32964e-05
-0.000146646
-0.000367802
-0.00064197
-0.000980914
-0.00138058
-0.00181136
-0.00223739
-0.00262859
-0.00292945
-0.00307342
0.00149598
0.00141504
0.00123013
0.000997063
0.000758432
0.000545069
0.000367103
0.000212055
6.3002e-05
-0.000103802
-0.000305519
-0.000539804
-0.000821555
-0.0011628
-0.00155731
-0.00198581
-0.0024141
-0.00280936
-0.00312012
-0.00327422
0.00144793
0.00135522
0.00116809
0.000919373
0.000664078
0.000436358
0.000245224
7.87442e-05
-7.71969e-05
-0.000246623
-0.000453096
-0.000694013
-0.000977157
-0.00131685
-0.00170588
-0.00212643
-0.00255281
-0.0029499
-0.00326947
-0.00343683
0.00139334
0.0012959
0.00109476
0.000834904
0.000565685
0.00032439
0.000120703
-5.4508e-05
-0.000213554
-0.000383086
-0.00058877
-0.000826978
-0.00110498
-0.00143675
-0.001818
-0.00222893
-0.00264867
-0.00304679
-0.0033763
-0.00356197
0.00132948
0.00122764
0.00101841
0.000744734
0.0004618
0.000208675
-7.79915e-06
-0.000190383
-0.000343038
-0.0004989
-0.000686186
-0.000896726
-0.00114732
-0.00145529
-0.00181432
-0.00221388
-0.0026267
-0.00302794
-0.00336982
-0.00357778
0.00125632
0.00115217
0.000938129
0.000653827
0.000354611
7.89312e-05
-0.000151182
-0.000349981
-0.000527925
-0.000704708
-0.000906724
-0.00110826
-0.00133071
-0.00156979
-0.00185047
-0.00219005
-0.00257096
-0.00296105
-0.00330898
-0.0035452
0.00117846
0.0010717
0.000846516
0.000549722
0.000244167
-3.74831e-05
-0.000275299
-0.00047655
-0.000643433
-0.000785869
-0.00091981
-0.00104042
-0.00116121
-0.0013517
-0.00159368
-0.0018902
-0.00224249
-0.00264845
-0.00307316
-0.00343614
0.00109153
0.000981844
0.000750204
0.000447288
0.000132973
-0.000157154
-0.00041568
-0.000658626
-0.000898226
-0.00114133
-0.00139793
-0.00153325
-0.00150239
-0.00139018
-0.00134374
-0.00140261
-0.00152073
-0.00162964
-0.00170843
-0.00179932
0.00099048
0.000876285
0.000648569
0.00036162
5.97303e-05
-0.000236515
-0.000507343
-0.000758114
-0.000969434
-0.00106024
-0.00101046
-0.000951909
-0.000961774
-0.00105774
-0.00119747
-0.00134331
-0.00147747
-0.00161734
-0.00179055
-0.00204125
0.000876766
0.000768013
0.000526154
0.000218419
-9.9304e-05
-0.00038181
-0.000597125
-0.000692257
-0.000736686
-0.000817538
-0.000954045
-0.0011145
-0.00128466
-0.00144295
-0.00154746
-0.00159675
-0.00158854
-0.00153107
-0.00146446
-0.00149051
0.000725483
0.000647376
0.000482125
0.0002689
5.05778e-05
-0.00015619
-0.000323249
-0.000518359
-0.000693046
-0.000835912
-0.00097241
-0.0010961
-0.00118813
-0.00130946
-0.00147976
-0.00172928
-0.00210155
-0.0025961
-0.00316796
-0.00370572
0.000534882
0.000446502
0.000374147
0.000260177
8.31004e-05
-0.000149361
-0.000399511
-0.000590014
-0.000773739
-0.000931622
-0.00106519
-0.00120171
-0.00130335
-0.00138815
-0.00147245
-0.00153113
-0.00155645
-0.00154475
-0.00155044
-0.00166183
0.000415543
0.000342805
0.00031789
0.000270295
0.000167415
8.09309e-06
-0.000181216
-0.000399386
-0.000632626
-0.000837242
-0.000980224
-0.00111635
-0.00122508
-0.00128648
-0.00133819
-0.00138593
-0.00143918
-0.00153192
-0.00171843
-0.00206848
0.0465187
0.0322606
0.0178212
0.00824351
0.00428905
0.00344014
0.00290361
0.00210688
0.00142341
0.000948
0.000475184
-7.93569e-05
-0.000739849
-0.00154696
-0.00239056
-0.00311924
-0.00375728
-0.00439635
-0.00504562
-0.00572177
-0.00645565
-0.00717041
-0.00780298
-0.0084304
-0.00912378
-0.00984379
-0.0105144
-0.0111057
-0.011673
-0.0122881
-0.0129318
-0.0135375
-0.0141028
-0.0146812
-0.0152964
-0.0159274
-0.0165683
-0.0172395
-0.0179338
-0.0186079
-0.0192584
-0.0199208
-0.0205902
-0.0212317
-0.0218721
-0.0225764
-0.023334
-0.0240926
-0.0248564
-0.025648
-0.0264413
-0.027201
-0.0279621
-0.0287653
-0.0295653
-0.030368
-0.0312259
-0.032111
-0.03299
-0.0338901
-0.0348096
-0.0357383
-0.0366776
-0.0376319
-0.0386005
-0.0395807
-0.0405805
-0.0416089
-0.0426589
-0.0437203
-0.0448023
-0.0459014
-0.047021
-0.0481557
-0.0493099
-0.050481
-0.05168
-0.0529
-0.0541415
-0.0553966
-0.0566744
-0.0579709
-0.0592948
-0.0606374
-0.0620078
-0.0633931
-0.0648091
-0.0662405
-0.0677092
-0.0691966
-0.0707161
-0.0722619
-0.0738294
-0.0754444
-0.077069
-0.0787562
-0.0804591
-0.0821987
-0.0839618
-0.0856437
0.0441631
0.0319919
0.0178876
0.0083888
0.00438607
0.00348594
0.00292877
0.00212207
0.00143395
0.00095672
0.000482905
-7.22324e-05
-0.000733001
-0.00154067
-0.00238515
-0.00311452
-0.00375299
-0.00439247
-0.00504208
-0.00571846
-0.00645274
-0.00716794
-0.00780074
-0.00842823
-0.00912176
-0.00984201
-0.0105129
-0.0111043
-0.0116717
-0.0122868
-0.0129307
-0.0135365
-0.0141018
-0.0146803
-0.0152955
-0.0159265
-0.0165675
-0.0172387
-0.0179331
-0.0186072
-0.0192577
-0.0199202
-0.0205896
-0.0212312
-0.0218716
-0.0225758
-0.0233335
-0.0240921
-0.0248559
-0.0256475
-0.0264409
-0.0272006
-0.0279617
-0.028765
-0.029565
-0.0303676
-0.0312255
-0.0321107
-0.0329897
-0.0338898
-0.0348093
-0.035738
-0.0366773
-0.0376317
-0.0386003
-0.0395805
-0.0405803
-0.0416087
-0.0426587
-0.0437201
-0.0448021
-0.0459012
-0.0470209
-0.0481555
-0.0493097
-0.0504808
-0.0516798
-0.0528998
-0.0541414
-0.0553964
-0.0566743
-0.0579708
-0.0592947
-0.0606372
-0.0620077
-0.063393
-0.064809
-0.0662404
-0.0677091
-0.0691965
-0.070716
-0.0722618
-0.0738293
-0.0754443
-0.0770689
-0.0787561
-0.080459
-0.0821987
-0.0839618
-0.0856438
0.0424992
0.0318124
0.0180552
0.00865615
0.00454812
0.00354746
0.00295972
0.00214411
0.00144998
0.000968439
0.000491497
-6.57022e-05
-0.000727408
-0.00153545
-0.00238022
-0.00310987
-0.00374878
-0.0043888
-0.00503877
-0.00571534
-0.00644995
-0.00716558
-0.00779861
-0.00842625
-0.00911998
-0.00984044
-0.0105115
-0.011103
-0.0116704
-0.0122856
-0.0129296
-0.0135356
-0.014101
-0.0146794
-0.0152947
-0.0159258
-0.0165668
-0.0172381
-0.0179325
-0.0186067
-0.0192572
-0.0199197
-0.0205891
-0.0212307
-0.0218711
-0.0225753
-0.023333
-0.0240917
-0.0248555
-0.0256472
-0.0264406
-0.0272003
-0.0279614
-0.0287646
-0.0295647
-0.0303673
-0.0312252
-0.0321104
-0.0329894
-0.0338895
-0.034809
-0.0357378
-0.0366771
-0.0376314
-0.0386
-0.0395802
-0.0405801
-0.0416085
-0.0426586
-0.0437199
-0.0448019
-0.0459011
-0.0470207
-0.0481554
-0.0493096
-0.0504807
-0.0516797
-0.0528997
-0.0541412
-0.0553963
-0.0566742
-0.0579707
-0.0592946
-0.0606371
-0.0620076
-0.0633929
-0.0648089
-0.0662403
-0.067709
-0.0691965
-0.0707159
-0.0722617
-0.0738292
-0.0754442
-0.0770688
-0.0787561
-0.080459
-0.0821987
-0.0839618
-0.0856441
0.0408898
0.0315476
0.0182345
0.00897679
0.00476527
0.00363683
0.00300927
0.00218236
0.0014782
0.000987639
0.000503825
-5.81514e-05
-0.000722323
-0.00153067
-0.00237479
-0.00310421
-0.00374375
-0.00438476
-0.00503525
-0.00571172
-0.00644624
-0.00716222
-0.00779584
-0.00842398
-0.00911797
-0.00983852
-0.0105097
-0.0111014
-0.011669
-0.0122843
-0.0129284
-0.0135345
-0.0141
-0.0146785
-0.0152939
-0.015925
-0.0165661
-0.0172374
-0.0179319
-0.0186061
-0.0192566
-0.0199192
-0.0205886
-0.0212302
-0.0218705
-0.0225748
-0.0233326
-0.0240913
-0.0248551
-0.0256468
-0.0264402
-0.0271999
-0.027961
-0.0287643
-0.0295643
-0.030367
-0.0312249
-0.0321102
-0.0329892
-0.0338893
-0.0348088
-0.0357375
-0.0366768
-0.0376312
-0.0385998
-0.03958
-0.0405799
-0.0416083
-0.0426584
-0.0437197
-0.0448018
-0.0459009
-0.0470206
-0.0481552
-0.0493095
-0.0504806
-0.0516795
-0.0528996
-0.0541411
-0.0553962
-0.0566741
-0.0579705
-0.0592945
-0.060637
-0.0620075
-0.0633928
-0.0648088
-0.0662403
-0.0677089
-0.0691964
-0.0707159
-0.0722616
-0.0738292
-0.0754441
-0.0770687
-0.078756
-0.0804589
-0.0821986
-0.0839619
-0.0856446
0.0392778
0.0311873
0.0184069
0.00931296
0.00500471
0.00374
0.00306935
0.00223349
0.00151858
0.00101552
0.000521418
-4.83037e-05
-0.000717013
-0.00152583
-0.00236822
-0.00309677
-0.00373728
-0.0043801
-0.00503172
-0.00570779
-0.00644124
-0.00715706
-0.00779174
-0.00842102
-0.0091153
-0.00983565
-0.010507
-0.0110992
-0.0116673
-0.0122827
-0.0129268
-0.0135329
-0.0140986
-0.0146773
-0.0152927
-0.0159239
-0.0165651
-0.0172366
-0.0179312
-0.0186055
-0.019256
-0.0199186
-0.0205881
-0.0212297
-0.0218699
-0.0225742
-0.023332
-0.0240908
-0.0248546
-0.0256463
-0.0264398
-0.0271995
-0.0279606
-0.0287639
-0.029564
-0.0303666
-0.0312245
-0.0321098
-0.0329888
-0.033889
-0.0348085
-0.0357372
-0.0366766
-0.037631
-0.0385996
-0.0395798
-0.0405796
-0.0416081
-0.0426582
-0.0437196
-0.0448016
-0.0459007
-0.0470204
-0.0481551
-0.0493093
-0.0504804
-0.0516794
-0.0528994
-0.054141
-0.0553961
-0.0566739
-0.0579704
-0.0592944
-0.0606369
-0.0620074
-0.0633927
-0.0648087
-0.0662402
-0.0677088
-0.0691963
-0.0707158
-0.0722616
-0.0738291
-0.0754441
-0.0770687
-0.0787559
-0.0804589
-0.0821986
-0.0839619
-0.0856453
0.0376884
0.0307572
0.0185721
0.00965169
0.00525299
0.0038474
0.00313039
0.00228909
0.00156571
0.00104938
0.000543177
-3.63377e-05
-0.000711169
-0.00152054
-0.00236028
-0.00308741
-0.00372918
-0.00437469
-0.00502834
-0.00570399
-0.00643526
-0.00715009
-0.00778618
-0.0084172
-0.00911167
-0.00983129
-0.0105027
-0.0110961
-0.0116651
-0.0122806
-0.0129245
-0.0135308
-0.0140969
-0.0146757
-0.0152911
-0.0159224
-0.0165639
-0.0172356
-0.0179303
-0.0186047
-0.0192553
-0.0199179
-0.0205875
-0.021229
-0.0218692
-0.0225735
-0.0233314
-0.0240903
-0.0248541
-0.0256459
-0.0264394
-0.0271991
-0.0279601
-0.0287635
-0.0295635
-0.0303661
-0.0312241
-0.0321095
-0.0329885
-0.0338886
-0.0348082
-0.0357369
-0.0366763
-0.0376307
-0.0385993
-0.0395795
-0.0405794
-0.0416078
-0.042658
-0.0437193
-0.0448014
-0.0459005
-0.0470202
-0.0481549
-0.0493091
-0.0504802
-0.0516792
-0.0528993
-0.0541408
-0.0553959
-0.0566738
-0.0579703
-0.0592942
-0.0606368
-0.0620073
-0.0633926
-0.0648086
-0.06624
-0.0677087
-0.0691962
-0.0707157
-0.0722615
-0.073829
-0.075444
-0.0770686
-0.0787558
-0.0804588
-0.0821985
-0.083962
-0.0856463
0.0361407
0.030266
0.0187194
0.00998471
0.00550683
0.00395807
0.00318998
0.00234543
0.00161637
0.00108708
0.000567804
-2.27387e-05
-0.000704654
-0.00151468
-0.00235123
-0.00307656
-0.00371971
-0.00436851
-0.00502503
-0.00570051
-0.00642883
-0.00714196
-0.00777963
-0.00841276
-0.00910708
-0.00982522
-0.0104965
-0.0110915
-0.0116622
-0.0122778
-0.0129213
-0.013528
-0.0140948
-0.0146738
-0.0152889
-0.0159203
-0.0165622
-0.0172342
-0.0179291
-0.0186037
-0.0192545
-0.0199172
-0.0205867
-0.0212282
-0.0218684
-0.0225727
-0.0233307
-0.0240896
-0.0248536
-0.0256453
-0.0264389
-0.0271986
-0.0279597
-0.028763
-0.029563
-0.0303656
-0.0312237
-0.0321091
-0.0329881
-0.0338883
-0.0348078
-0.0357366
-0.036676
-0.0376304
-0.038599
-0.0395792
-0.0405791
-0.0416075
-0.0426577
-0.0437191
-0.0448011
-0.0459003
-0.04702
-0.0481547
-0.0493089
-0.05048
-0.051679
-0.0528991
-0.0541407
-0.0553958
-0.0566737
-0.0579701
-0.0592941
-0.0606367
-0.0620072
-0.0633925
-0.0648085
-0.0662399
-0.0677085
-0.0691961
-0.0707155
-0.0722614
-0.0738289
-0.0754439
-0.0770685
-0.0787557
-0.0804587
-0.0821984
-0.083962
-0.0856475
0.0346465
0.0297116
0.0188367
0.0103088
0.00576842
0.00407509
0.00324881
0.00240129
0.00166909
0.00112751
0.000594598
-7.76871e-06
-0.000697445
-0.00150837
-0.00234151
-0.00306477
-0.00370928
-0.00436166
-0.00502157
-0.00569716
-0.00642228
-0.00713341
-0.0077728
-0.00840818
-0.00910185
-0.00981765
-0.0104884
-0.0110856
-0.0116584
-0.0122743
-0.0129172
-0.0135244
-0.0140924
-0.0146717
-0.0152864
-0.0159177
-0.01656
-0.0172323
-0.0179273
-0.0186022
-0.0192535
-0.0199163
-0.0205858
-0.0212274
-0.0218675
-0.0225717
-0.0233297
-0.0240888
-0.0248529
-0.0256447
-0.0264382
-0.0271981
-0.0279591
-0.0287624
-0.0295624
-0.0303651
-0.0312232
-0.0321086
-0.0329876
-0.0338878
-0.0348074
-0.0357362
-0.0366756
-0.03763
-0.0385987
-0.0395789
-0.0405787
-0.0416072
-0.0426574
-0.0437188
-0.0448008
-0.0459
-0.0470197
-0.0481545
-0.0493087
-0.0504798
-0.0516788
-0.0528989
-0.0541405
-0.0553956
-0.0566735
-0.05797
-0.0592939
-0.0606365
-0.062007
-0.0633924
-0.0648083
-0.0662398
-0.0677084
-0.0691959
-0.0707154
-0.0722612
-0.0738287
-0.0754438
-0.0770683
-0.0787555
-0.0804586
-0.0821982
-0.0839619
-0.0856489
0.0332086
0.0290947
0.0189184
0.0106254
0.00604095
0.00420086
0.00330684
0.00245501
0.00172238
0.00116985
0.000623193
8.42765e-06
-0.00068964
-0.0015018
-0.00233143
-0.00305241
-0.00369822
-0.00435429
-0.0050178
-0.00569372
-0.00641567
-0.00712477
-0.00776605
-0.00840378
-0.00909642
-0.00980913
-0.0104789
-0.0110784
-0.0116538
-0.01227
-0.0129122
-0.01352
-0.0140897
-0.0146696
-0.0152837
-0.0159147
-0.0165574
-0.0172298
-0.0179248
-0.0186002
-0.019252
-0.0199153
-0.0205849
-0.0212266
-0.0218667
-0.0225706
-0.0233284
-0.0240877
-0.0248521
-0.0256438
-0.0264374
-0.0271975
-0.0279587
-0.0287618
-0.0295618
-0.0303645
-0.0312226
-0.032108
-0.0329871
-0.0338874
-0.034807
-0.0357358
-0.0366752
-0.0376296
-0.0385983
-0.0395785
-0.0405783
-0.0416068
-0.042657
-0.0437185
-0.0448005
-0.0458997
-0.0470194
-0.0481542
-0.0493084
-0.0504796
-0.0516786
-0.0528987
-0.0541403
-0.0553954
-0.0566733
-0.0579698
-0.0592938
-0.0606364
-0.0620069
-0.0633922
-0.0648082
-0.0662396
-0.0677083
-0.0691958
-0.0707153
-0.0722611
-0.0738286
-0.0754436
-0.0770682
-0.0787554
-0.0804584
-0.0821979
-0.0839618
-0.0856506
0.0318318
0.0284227
0.0189629
0.0109336
0.00632354
0.00433537
0.00336319
0.00250487
0.00177497
0.0012137
0.000653574
2.58623e-05
-0.000681297
-0.00149508
-0.00232116
-0.00303966
-0.00368667
-0.00434647
-0.00501375
-0.00569016
-0.00640896
-0.00711602
-0.00775929
-0.0083995
-0.00909096
-0.00980016
-0.0104686
-0.0110704
-0.0116485
-0.012265
-0.0129063
-0.0135149
-0.0140865
-0.0146673
-0.015281
-0.0159118
-0.0165547
-0.017227
-0.0179218
-0.0185974
-0.0192501
-0.0199138
-0.0205837
-0.0212258
-0.021866
-0.0225695
-0.0233269
-0.0240864
-0.0248509
-0.0256426
-0.0264363
-0.0271969
-0.0279582
-0.0287611
-0.029561
-0.0303638
-0.0312219
-0.0321072
-0.0329864
-0.0338868
-0.0348064
-0.0357352
-0.0366747
-0.0376291
-0.0385978
-0.039578
-0.0405779
-0.0416064
-0.0426566
-0.043718
-0.0448001
-0.0458994
-0.0470191
-0.0481538
-0.0493081
-0.0504792
-0.0516783
-0.0528984
-0.05414
-0.0553952
-0.0566731
-0.0579696
-0.0592936
-0.0606362
-0.0620067
-0.063392
-0.064808
-0.0662395
-0.0677081
-0.0691957
-0.0707151
-0.072261
-0.0738284
-0.0754435
-0.077068
-0.0787551
-0.0804583
-0.0821976
-0.0839616
-0.0856525
0.0305196
0.0277062
0.0189674
0.0112277
0.00661258
0.00447895
0.00341848
0.0025503
0.00182619
0.00125891
0.000685861
4.46098e-05
-0.000672435
-0.00148828
-0.0023108
-0.0030266
-0.00367468
-0.00433825
-0.00500947
-0.00568652
-0.00640216
-0.00710705
-0.00775228
-0.00839509
-0.00908543
-0.00979097
-0.0104578