/*--------------------------------*- C++ -*----------------------------------*\
| =========                 |                                                 |
| \\      /  F ield         | OpenFOAM: The Open Source CFD Toolbox           |
|  \\    /   O peration     | Version:  3.0.1                                 |
|   \\  /    A nd           | Web:      www.OpenFOAM.org                      |
|    \\/     M anipulation  |                                                 |
\*---------------------------------------------------------------------------*/
FoamFile
{
    version     2.0;
    format      ascii;
    class       surfaceScalarField;
    location    "3.8";
    object      phi;
}
// * * * * * * * * * * * * * * * * * * * * * * * * * * * * * * * * * * * * * //

dimensions      [0 3 -1 0 0 0 0];

internalField   nonuniform List<scalar> 
19000
(
1.15966e-06
-5.70606e-07
1.20019e-06
3.93144e-07
1.17303e-06
-8.28819e-08
1.146e-06
1.03607e-06
1.14953e-06
-2.74746e-07
1.20735e-06
-1.3792e-06
1.24861e-06
-1.06866e-06
1.23733e-06
-6.06848e-07
1.23485e-06
6.72764e-07
1.18813e-06
4.45588e-07
1.18234e-06
7.98381e-07
1.16725e-06
3.1371e-07
1.15895e-06
-1.5997e-07
1.15407e-06
-3.33544e-07
1.14728e-06
-6.17111e-07
1.139e-06
-5.79757e-07
1.15357e-06
-5.90005e-07
1.13641e-06
-6.50682e-07
1.16451e-06
-3.3229e-07
-7.13019e-07
1.09111e-06
1.21805e-06
-5.6439e-07
1.26152e-06
3.49674e-07
1.23312e-06
-5.44844e-08
1.21239e-06
1.0568e-06
1.20186e-06
-2.6422e-07
1.24941e-06
-1.42674e-06
1.2993e-06
-1.11855e-06
1.29622e-06
-6.03763e-07
1.28673e-06
6.82249e-07
1.25053e-06
4.8179e-07
1.23078e-06
8.18128e-07
1.23504e-06
3.09457e-07
1.21731e-06
-1.42246e-07
1.22413e-06
-3.4036e-07
1.20686e-06
-5.99839e-07
1.2096e-06
-5.82503e-07
1.20187e-06
-5.82275e-07
1.20577e-06
-6.54577e-07
1.20626e-06
-3.32782e-07
-6.78799e-07
1.17204e-06
1.27777e-06
-5.59377e-07
1.32473e-06
3.0271e-07
1.29766e-06
-2.74135e-08
1.28052e-06
1.07394e-06
1.25595e-06
-2.39651e-07
1.29214e-06
-1.46293e-06
1.34712e-06
-1.17353e-06
1.35377e-06
-6.10414e-07
1.34244e-06
6.93573e-07
1.31554e-06
5.08697e-07
1.29521e-06
8.38459e-07
1.30184e-06
3.02822e-07
1.28921e-06
-1.2962e-07
1.28834e-06
-3.39488e-07
1.27421e-06
-5.85705e-07
1.26901e-06
-5.77304e-07
1.2624e-06
-5.75668e-07
1.26125e-06
-6.53421e-07
1.26692e-06
-3.38454e-07
-6.51209e-07
1.23933e-06
1.33887e-06
-5.54141e-07
1.38589e-06
2.55685e-07
1.36314e-06
-4.65925e-09
1.34677e-06
1.09031e-06
1.31323e-06
-2.06113e-07
1.3378e-06
-1.48749e-06
1.39318e-06
-1.22891e-06
1.41058e-06
-6.27814e-07
1.4037e-06
7.00451e-07
1.38349e-06
5.28906e-07
1.37029e-06
8.51659e-07
1.37325e-06
2.9986e-07
1.36365e-06
-1.20012e-07
1.35713e-06
-3.32974e-07
1.34237e-06
-5.70939e-07
1.33473e-06
-5.69664e-07
1.32498e-06
-5.65918e-07
1.32074e-06
-6.49184e-07
1.32431e-06
-3.42024e-07
-6.22287e-07
1.29539e-06
1.40221e-06
-5.47996e-07
1.44439e-06
2.13499e-07
1.42788e-06
1.18536e-08
1.4119e-06
1.10629e-06
1.37658e-06
-1.70794e-07
1.38927e-06
-1.50018e-06
1.44006e-06
-1.27969e-06
1.46661e-06
-6.54366e-07
1.4689e-06
6.98162e-07
1.4549e-06
5.42909e-07
1.44907e-06
8.57485e-07
1.44879e-06
3.00136e-07
1.4387e-06
-1.09924e-07
1.42923e-06
-3.23499e-07
1.41213e-06
-5.53835e-07
1.40353e-06
-5.61073e-07
1.39122e-06
-5.53606e-07
1.38346e-06
-6.41424e-07
1.38609e-06
-3.44651e-07
-5.9134e-07
1.35514e-06
1.46885e-06
-5.41173e-07
1.50238e-06
1.79971e-07
1.49245e-06
2.17846e-08
1.47906e-06
1.11968e-06
1.44738e-06
-1.39119e-07
1.44852e-06
-1.50132e-06
1.49034e-06
-1.32151e-06
1.52299e-06
-6.87017e-07
1.53587e-06
6.85286e-07
1.52896e-06
5.49814e-07
1.5288e-06
8.57642e-07
1.5264e-06
3.0254e-07
1.51473e-06
-9.82548e-08
1.50305e-06
-3.1182e-07
1.48421e-06
-5.34989e-07
1.47425e-06
-5.51115e-07
1.46095e-06
-5.40304e-07
1.4494e-06
-6.29876e-07
1.45157e-06
-3.46823e-07
-5.58643e-07
1.41887e-06
1.53932e-06
-5.34277e-07
1.56287e-06
1.56423e-07
1.55867e-06
2.59814e-08
1.55113e-06
1.12723e-06
1.52533e-06
-1.13325e-07
1.51598e-06
-1.49197e-06
1.5459e-06
-1.35143e-06
1.58112e-06
-7.22242e-07
1.60385e-06
6.6256e-07
1.60458e-06
5.49079e-07
1.60903e-06
8.53199e-07
1.60487e-06
3.06695e-07
1.59175e-06
-8.5135e-08
1.57834e-06
-2.98411e-07
1.55869e-06
-5.15336e-07
1.54738e-06
-5.39805e-07
1.5339e-06
-5.26825e-07
1.51895e-06
-6.14924e-07
1.52052e-06
-3.484e-07
-5.24971e-07
1.48685e-06
1.61354e-06
-5.2769e-07
1.62817e-06
1.41789e-07
1.62845e-06
2.57027e-08
1.62911e-06
1.12657e-06
1.6091e-06
-9.33185e-08
1.5909e-06
-1.47377e-06
1.60767e-06
-1.3682e-06
1.6423e-06
-7.5687e-07
1.6731e-06
6.31758e-07
1.68093e-06
5.41245e-07
1.6894e-06
8.44728e-07
1.68364e-06
3.12455e-07
1.66959e-06
-7.10834e-08
1.65512e-06
-2.83939e-07
1.63552e-06
-4.95733e-07
1.6232e-06
-5.27484e-07
1.61005e-06
-5.13681e-07
1.59232e-06
-5.97188e-07
1.59306e-06
-3.4914e-07
-4.91101e-07
1.55919e-06
1.69124e-06
-5.21358e-07
1.69933e-06
1.33707e-07
1.70293e-06
2.20943e-08
1.71224e-06
1.11727e-06
1.69702e-06
-7.80993e-08
1.67201e-06
-1.44875e-06
1.67588e-06
-1.37208e-06
1.70741e-06
-7.88393e-07
1.74393e-06
5.95232e-07
1.75737e-06
5.27803e-07
1.76943e-06
8.32677e-07
1.76252e-06
3.1936e-07
1.74836e-06
-5.6927e-08
1.73359e-06
-2.69161e-07
1.71484e-06
-4.76987e-07
1.70185e-06
-5.14494e-07
1.68947e-06
-5.01296e-07
1.66963e-06
-5.77352e-07
1.66934e-06
-3.48854e-07
-4.5769e-07
1.63593e-06
1.77235e-06
-5.14985e-07
1.77634e-06
1.29719e-07
1.78231e-06
1.61248e-08
1.79908e-06
1.10049e-06
1.78766e-06
-6.66708e-08
1.75809e-06
-1.41919e-06
1.75041e-06
-1.3644e-06
1.77683e-06
-8.14815e-07
1.81637e-06
5.55698e-07
1.83354e-06
5.10628e-07
1.84887e-06
8.1735e-07
1.84179e-06
3.2644e-07
1.82859e-06
-4.37301e-08
1.81419e-06
-2.54756e-07
1.79695e-06
-4.59754e-07
1.78353e-06
-5.01074e-07
1.77215e-06
-4.89914e-07
1.75096e-06
-5.56158e-07
1.7495e-06
-3.47395e-07
-4.25351e-07
1.71716e-06
1.85706e-06
-5.08296e-07
1.8588e-06
1.27983e-07
1.8662e-06
8.72294e-09
1.88852e-06
1.07816e-06
1.88018e-06
-5.83246e-08
1.84825e-06
-1.38726e-06
1.8311e-06
-1.34724e-06
1.85083e-06
-8.3455e-07
1.89061e-06
5.15918e-07
1.90983e-06
4.91403e-07
1.92833e-06
7.98857e-07
1.92233e-06
3.32438e-07
1.91114e-06
-3.25388e-08
1.89757e-06
-2.41192e-07
1.88225e-06
-4.44425e-07
1.86854e-06
-4.87366e-07
1.85815e-06
-4.79524e-07
1.83634e-06
-5.34346e-07
1.83355e-06
-3.44611e-07
-3.94733e-07
1.80293e-06
1.94572e-06
-5.01179e-07
1.9463e-06
1.27404e-07
1.95421e-06
8.13197e-10
1.98026e-06
1.05211e-06
1.97451e-06
-5.25705e-08
1.94198e-06
-1.35474e-06
1.91777e-06
-1.32303e-06
1.9299e-06
-8.46682e-07
1.96764e-06
4.78181e-07
1.98769e-06
4.71355e-07
2.00928e-06
7.77263e-07
2.00544e-06
3.36279e-07
1.997e-06
-2.40953e-08
1.98446e-06
-2.28655e-07
1.97115e-06
-4.3111e-07
1.95725e-06
-4.73468e-07
1.94758e-06
-4.69857e-07
1.92583e-06
-5.12598e-07
1.92153e-06
-3.40311e-07
-3.66437e-07
1.89324e-06
2.03867e-06
-4.93658e-07
2.03865e-06
1.27421e-07
2.04626e-06
-6.79328e-09
2.07473e-06
1.02364e-06
2.07116e-06
-4.89974e-08
2.03916e-06
-1.32274e-06
2.01018e-06
-1.29405e-06
2.01476e-06
-8.5126e-07
2.04911e-06
4.43826e-07
2.06917e-06
4.51294e-07
2.09363e-06
7.5281e-07
2.09244e-06
3.37464e-07
2.08705e-06
-1.87016e-08
2.07548e-06
-2.17083e-07
2.06404e-06
-4.19677e-07
2.05006e-06
-4.59481e-07
2.04067e-06
-4.60466e-07
2.01956e-06
-4.91489e-07
2.01357e-06
-3.34325e-07
-3.40852e-07
1.98799e-06
2.13615e-06
-4.85805e-07
2.13582e-06
1.27744e-07
2.14254e-06
-1.35126e-08
2.17268e-06
9.9351e-07
2.17088e-06
-4.71958e-08
2.13993e-06
-1.2918e-06
2.10798e-06
-1.2621e-06
2.10592e-06
-8.49202e-07
2.13658e-06
4.13163e-07
2.15612e-06
4.31752e-07
2.18298e-06
7.25953e-07
2.18433e-06
3.36116e-07
2.18191e-06
-1.62842e-08
2.17112e-06
-2.06292e-07
2.16126e-06
-4.0982e-07
2.14734e-06
-4.45561e-07
2.13768e-06
-4.50804e-07
2.11767e-06
-4.71479e-07
2.11e-06
-3.26653e-07
-3.17983e-07
2.08713e-06
2.23835e-06
-4.77667e-07
2.23794e-06
1.2816e-07
2.24344e-06
-1.90128e-08
2.27484e-06
9.62103e-07
2.2744e-06
-4.67486e-08
2.24464e-06
-1.26204e-06
2.21083e-06
-1.22829e-06
2.20346e-06
-8.41832e-07
2.23085e-06
3.85774e-07
2.24953e-06
4.13076e-07
2.27829e-06
6.97187e-07
2.28168e-06
3.32725e-07
2.28196e-06
-1.65591e-08
2.27177e-06
-1.96105e-07
2.26306e-06
-4.01107e-07
2.24943e-06
-4.31936e-07
2.23896e-06
-4.40327e-07
2.22037e-06
-4.52894e-07
2.21124e-06
-3.17525e-07
-2.97438e-07
2.1907e-06
2.34545e-06
-4.69244e-07
2.34516e-06
1.28456e-07
2.34931e-06
-2.31681e-08
2.3818e-06
9.29615e-07
2.38229e-06
-4.72405e-08
2.35364e-06
-1.23339e-06
2.31858e-06
-1.19322e-06
2.30714e-06
-8.30398e-07
2.33197e-06
3.60947e-07
2.3496e-06
3.95445e-07
2.37993e-06
6.66862e-07
2.38481e-06
3.27842e-07
2.38741e-06
-1.91603e-08
2.37775e-06
-1.86446e-07
2.36966e-06
-3.93019e-07
2.35661e-06
-4.18881e-07
2.34488e-06
-4.28598e-07
2.32781e-06
-4.35828e-07
2.31763e-06
-3.07342e-07
-2.78635e-07
2.29883e-06
2.45764e-06
-4.60491e-07
2.45768e-06
1.28413e-07
2.46051e-06
-2.59933e-08
2.49398e-06
8.96144e-07
2.495e-06
-4.82635e-08
2.4673e-06
-1.20568e-06
2.43127e-06
-1.15719e-06
2.41672e-06
-8.15856e-07
2.43972e-06
3.37951e-07
2.45627e-06
3.78897e-07
2.488e-06
6.35134e-07
2.49393e-06
3.21912e-07
2.49845e-06
-2.36788e-08
2.48934e-06
-1.77344e-07
2.48132e-06
-3.84994e-07
2.4691e-06
-4.06664e-07
2.45586e-06
-4.15356e-07
2.44016e-06
-4.20131e-07
2.42943e-06
-2.96607e-07
-2.60995e-07
2.41179e-06
2.57515e-06
-4.51346e-07
2.57573e-06
1.27836e-07
2.57732e-06
-2.75825e-08
2.61174e-06
8.61719e-07
2.61291e-06
-4.94337e-08
2.58594e-06
-1.17871e-06
2.54911e-06
-1.12036e-06
2.53216e-06
-7.98906e-07
2.55399e-06
3.1612e-07
2.56951e-06
3.63375e-07
2.60259e-06
6.02059e-07
2.60925e-06
3.15249e-07
2.61522e-06
-2.96422e-08
2.60679e-06
-1.68923e-07
2.59826e-06
-3.76459e-07
2.58709e-06
-3.95498e-07
2.57232e-06
-4.0058e-07
2.55755e-06
-4.05368e-07
2.54685e-06
-2.85902e-07
-2.44061e-07
2.52992e-06
2.69823e-06
-4.41752e-07
2.6995e-06
1.26574e-07
2.69997e-06
-2.80567e-08
2.73537e-06
8.26319e-07
2.73636e-06
-5.04245e-08
2.7099e-06
-1.15225e-06
2.67243e-06
-1.08289e-06
2.65361e-06
-7.80082e-07
2.67489e-06
2.94839e-07
2.68947e-06
3.48789e-07
2.72381e-06
5.6772e-07
2.731e-06
3.08063e-07
2.73786e-06
-3.65045e-08
2.73031e-06
-1.61375e-07
2.72073e-06
-3.66879e-07
2.71073e-06
-3.85494e-07
2.69468e-06
-3.84536e-07
2.68019e-06
-3.90877e-07
2.67011e-06
-2.7582e-07
-2.27581e-07
2.65363e-06
2.82718e-06
-4.31665e-07
2.82923e-06
1.2453e-07
2.8287e-06
-2.75273e-08
2.86511e-06
7.8991e-07
2.86568e-06
-5.09992e-08
2.83951e-06
-1.12608e-06
2.80158e-06
-1.04496e-06
2.7813e-06
-7.59799e-07
2.80256e-06
2.73575e-07
2.8163e-06
3.35055e-07
2.85172e-06
5.32293e-07
2.85934e-06
3.00451e-07
2.86651e-06
-4.36817e-08
2.86006e-06
-1.54918e-07
2.84903e-06
-3.55858e-07
2.84014e-06
-3.76598e-07
2.82329e-06
-3.6769e-07
2.80843e-06
-3.76013e-07
2.79936e-06
-2.66749e-07
-2.11582e-07
2.78336e-06
2.96229e-06
-4.21058e-07
2.96518e-06
1.21643e-07
2.96373e-06
-2.608e-08
3.00117e-06
7.52471e-07
3.00119e-06
-5.10253e-08
2.97513e-06
-1.10002e-06
2.93694e-06
-1.00677e-06
2.91548e-06
-7.38344e-07
2.93715e-06
2.51908e-07
2.9501e-06
3.221e-07
2.98634e-06
4.96057e-07
2.9944e-06
2.92391e-07
3.00132e-06
-5.06073e-08
2.99617e-06
-1.49762e-07
2.98351e-06
-3.43196e-07
2.97548e-06
-3.68572e-07
2.95842e-06
-3.50634e-07
2.9427e-06
-3.60291e-07
2.93474e-06
-2.58784e-07
-1.96315e-07
2.91947e-06
3.10386e-06
-4.09916e-07
3.10763e-06
1.1788e-07
3.10533e-06
-2.37786e-08
3.14377e-06
7.1403e-07
3.14321e-06
-5.04653e-08
3.11708e-06
-1.0739e-06
3.07885e-06
-9.68535e-07
3.05638e-06
-7.15876e-07
3.07872e-06
2.2957e-07
3.09098e-06
3.09843e-07
3.12767e-06
4.59367e-07
3.13633e-06
2.83732e-07
3.14249e-06
-5.67763e-08
3.1388e-06
-1.46066e-07
3.12452e-06
-3.28912e-07
3.11696e-06
-3.61013e-07
3.1003e-06
-3.33978e-07
3.08348e-06
-3.43472e-07
3.07641e-06
-2.5171e-07
-1.82188e-07
3.06228e-06
3.25223e-06
-3.98232e-07
3.25688e-06
1.13226e-07
3.25378e-06
-2.0679e-08
3.29315e-06
6.74662e-07
3.29204e-06
-4.93557e-08
3.26571e-06
-1.04756e-06
3.22768e-06
-9.30504e-07
3.20425e-06
-6.92453e-07
3.22738e-06
2.06439e-07
3.23905e-06
2.98173e-07
3.2758e-06
4.22626e-07
3.28529e-06
2.74239e-07
3.29029e-06
-6.1779e-08
3.28811e-06
-1.43887e-07
3.27245e-06
-3.13246e-07
3.26483e-06
-3.53402e-07
3.24909e-06
-3.18229e-07
3.23127e-06
-3.25654e-07
3.22459e-06
-2.45031e-07
-1.69629e-07
3.21203e-06
3.4077e-06
-3.86005e-07
3.41325e-06
1.07683e-07
3.40941e-06
-1.68437e-08
3.44958e-06
6.34493e-07
3.44801e-06
-4.77856e-08
3.42133e-06
-1.02088e-06
3.38375e-06
-8.92929e-07
3.35938e-06
-6.68079e-07
3.3833e-06
1.82513e-07
3.39455e-06
2.86926e-07
3.4309e-06
3.86271e-07
3.44152e-06
2.63628e-07
3.44504e-06
-6.53023e-08
3.44431e-06
-1.43155e-07
3.42767e-06
-2.96611e-07
3.41943e-06
-3.45157e-07
3.40499e-06
-3.03794e-07
3.38645e-06
-3.07111e-07
3.37962e-06
-2.38206e-07
-1.58946e-07
3.36894e-06
3.57064e-06
-3.73236e-07
3.57706e-06
1.01265e-07
3.57257e-06
-1.23504e-08
3.61337e-06
5.9369e-07
3.61147e-06
-4.58807e-08
3.58428e-06
-9.93697e-07
3.54742e-06
-8.56067e-07
3.52209e-06
-6.4275e-07
3.54672e-06
1.57888e-07
3.55775e-06
2.75892e-07
3.59327e-06
3.50753e-07
3.60527e-06
2.51626e-07
3.60712e-06
-6.71566e-08
3.60762e-06
-1.43652e-07
3.59054e-06
-2.79529e-07
3.58115e-06
-3.35764e-07
3.56821e-06
-2.90857e-07
3.54937e-06
-2.88272e-07
3.54193e-06
-2.30768e-07
-1.50214e-07
3.5332e-06
3.7414e-06
-3.59934e-07
3.74866e-06
9.40072e-08
3.74361e-06
-7.29814e-09
3.78485e-06
5.52453e-07
3.78276e-06
-4.37914e-08
3.75493e-06
-9.65868e-07
3.71902e-06
-8.20162e-07
3.69277e-06
-6.16492e-07
3.71792e-06
1.32736e-07
3.72899e-06
2.64818e-07
3.76324e-06
3.16508e-07
3.77682e-06
2.38046e-07
3.77698e-06
-6.73181e-08
3.77833e-06
-1.45007e-07
3.76137e-06
-2.62569e-07
3.75048e-06
-3.24874e-07
3.73903e-06
-2.79398e-07
3.72033e-06
-2.69579e-07
3.71198e-06
-2.22416e-07
-1.43278e-07
3.70504e-06
3.92037e-06
-3.46111e-07
3.92841e-06
8.59621e-08
3.92292e-06
-1.80637e-09
3.96436e-06
5.1101e-07
3.96225e-06
-4.16824e-08
3.93364e-06
-9.37254e-07
3.89891e-06
-7.85437e-07
3.8718e-06
-5.89378e-07
3.89724e-06
1.07291e-07
3.90864e-06
2.53424e-07
3.94121e-06
2.83939e-07
3.95645e-06
2.22805e-07
3.95504e-06
-6.59164e-08
3.9568e-06
-1.46762e-07
3.94045e-06
-2.46219e-07
3.92796e-06
-3.12384e-07
3.91773e-06
-2.69168e-07
3.89967e-06
-2.51518e-07
3.89019e-06
-2.12935e-07
-1.37829e-07
3.88474e-06
4.10793e-06
-3.31787e-07
4.11669e-06
7.71999e-08
4.11089e-06
3.99145e-09
4.1523e-06
4.696e-07
4.15034e-06
-3.97193e-08
4.12082e-06
-9.07739e-07
4.08746e-06
-7.52073e-07
4.05961e-06
-5.61535e-07
4.08506e-06
8.18472e-08
4.09706e-06
2.41418e-07
4.12758e-06
2.53421e-07
4.14446e-06
2.05927e-07
4.14177e-06
-6.32273e-08
4.14342e-06
-1.48408e-07
4.12807e-06
-2.30868e-07
4.11408e-06
-2.98396e-07
4.10467e-06
-2.59764e-07
4.08772e-06
-2.34565e-07
4.077e-06
-2.02213e-07
-1.33435e-07
4.0726e-06
4.3045e-06
-3.16985e-07
4.3139e-06
6.78028e-08
4.30793e-06
9.95907e-09
4.34907e-06
4.28465e-07
4.3474e-06
-3.80572e-08
4.3169e-06
-8.77239e-07
4.28504e-06
-7.20211e-07
4.25665e-06
-5.33141e-07
4.28177e-06
5.67312e-08
4.29467e-06
2.28517e-07
4.32281e-06
2.25276e-07
4.3412e-06
1.87541e-07
4.3376e-06
-5.96341e-08
4.33865e-06
-1.49456e-07
4.32458e-06
-2.16796e-07
4.30935e-06
-2.8317e-07
4.30028e-06
-2.50689e-07
4.28479e-06
-2.19077e-07
4.27296e-06
-1.90384e-07
-1.295e-07
4.26903e-06
4.51053e-06
-3.01738e-07
4.52047e-06
5.78571e-08
4.51446e-06
1.59738e-08
4.55509e-06
3.87828e-07
4.55387e-06
-3.68347e-08
4.52234e-06
-8.45711e-07
4.49207e-06
-6.89941e-07
4.46335e-06
-5.04422e-07
4.4878e-06
3.22872e-08
4.50184e-06
2.14477e-07
4.52737e-06
1.99743e-07
4.54702e-06
1.67894e-07
4.54298e-06
-5.55957e-08
4.54301e-06
-1.49491e-07
4.53035e-06
-2.04132e-07
4.51429e-06
-2.67106e-07
4.50503e-06
-2.41438e-07
4.4912e-06
-2.05239e-07
4.47868e-06
-1.77865e-07
-1.25304e-07
4.47448e-06
4.72646e-06
-2.86081e-07
4.73687e-06
4.74457e-08
4.7309e-06
2.19425e-08
4.77084e-06
3.47888e-07
4.77017e-06
-3.61682e-08
4.73763e-06
-8.13162e-07
4.70898e-06
-6.61291e-07
4.68019e-06
-4.75636e-07
4.70362e-06
8.8602e-09
4.71898e-06
1.99111e-07
4.74183e-06
1.76895e-07
4.7623e-06
1.47425e-07
4.75834e-06
-5.16365e-08
4.75704e-06
-1.48191e-07
4.74577e-06
-1.92856e-07
4.7293e-06
-2.50643e-07
4.71953e-06
-2.31666e-07
4.70727e-06
-1.92975e-07
4.69463e-06
-1.65223e-07
-1.2032e-07
4.68964e-06
4.95277e-06
-2.70055e-07
4.96358e-06
3.66403e-08
4.9577e-06
2.78166e-08
4.99678e-06
3.08806e-07
4.99678e-06
-3.61602e-08
4.96324e-06
-7.7963e-07
4.9362e-06
-6.34244e-07
4.90762e-06
-4.4706e-07
4.92969e-06
-1.32131e-08
4.9465e-06
1.82301e-07
4.96679e-06
1.56612e-07
4.98749e-06
1.26721e-07
4.9841e-06
-4.8249e-08
4.98134e-06
-1.45428e-07
4.97124e-06
-1.82756e-07
4.95484e-06
-2.34239e-07
4.94441e-06
-2.21236e-07
4.93341e-06
-1.81977e-07
4.92122e-06
-1.53036e-07
-1.14323e-07
4.91522e-06
5.18997e-06
-2.53705e-07
5.20111e-06
2.54927e-08
5.19533e-06
3.36015e-08
5.23341e-06
2.70721e-07
5.23417e-06
-3.69188e-08
5.19972e-06
-7.45181e-07
5.17423e-06
-6.08754e-07
5.14615e-06
-4.18974e-07
5.16654e-06
-3.36067e-08
5.18482e-06
1.64019e-07
5.20277e-06
1.38661e-07
5.22311e-06
1.06384e-07
5.22068e-06
-4.58234e-08
5.21651e-06
-1.41257e-07
5.20726e-06
-1.73503e-07
5.19129e-06
-2.18266e-07
5.18025e-06
-2.10202e-07
5.17013e-06
-1.71857e-07
5.15876e-06
-1.41661e-07
-1.07517e-07
5.15195e-06
5.43856e-06
-2.37081e-07
5.45002e-06
1.40368e-08
5.44427e-06
3.93481e-08
5.48123e-06
2.33762e-07
5.48289e-06
-3.85733e-08
5.4476e-06
-7.09891e-07
5.42364e-06
-5.84797e-07
5.3963e-06
-3.91633e-07
5.41471e-06
-5.20125e-08
5.43435e-06
1.44378e-07
5.45034e-06
1.22671e-07
5.46974e-06
8.69792e-08
5.46848e-06
-4.45636e-08
5.46316e-06
-1.35934e-07
5.45438e-06
-1.64727e-07
5.43909e-06
-2.0297e-07
5.42762e-06
-1.98733e-07
5.41807e-06
-1.62307e-07
5.4076e-06
-1.31195e-07
-1.00274e-07
5.40036e-06
5.69912e-06
-2.20242e-07
5.71085e-06
2.30353e-09
5.70507e-06
4.513e-08
5.74075e-06
1.98081e-07
5.74347e-06
-4.12923e-08
5.70744e-06
-6.73857e-07
5.68497e-06
-5.62327e-07
5.65871e-06
-3.65373e-07
5.67477e-06
-6.80746e-08
5.69556e-06
1.23584e-07
5.71e-06
1.08233e-07
5.72801e-06
6.89708e-08
5.72794e-06
-4.44907e-08
5.7218e-06
-1.29798e-07
5.7132e-06
-1.56122e-07
5.69872e-06
-1.88494e-07
5.68703e-06
-1.87043e-07
5.67781e-06
-1.53083e-07
5.66828e-06
-1.21667e-07
-9.28764e-08
5.66088e-06
5.97221e-06
-2.03257e-07
5.98418e-06
-9.66533e-09
5.9783e-06
5.10085e-08
6.01248e-06
1.63902e-07
6.01649e-06
-4.53065e-08
5.9797e-06
-6.37062e-07
5.95873e-06
-5.41361e-07
5.93401e-06
-3.40652e-07
5.94742e-06
-8.14871e-08
5.96895e-06
1.02054e-07
5.98227e-06
9.49092e-08
5.99854e-06
5.27071e-08
5.99951e-06
-4.546e-08
5.99292e-06
-1.23214e-07
5.98433e-06
-1.4753e-07
5.97073e-06
-1.74896e-07
5.95899e-06
-1.75296e-07
5.95003e-06
-1.44126e-07
5.9413e-06
-1.12942e-07
-8.56146e-08
5.93404e-06
6.25844e-06
-1.86212e-07
6.27056e-06
-2.1787e-08
6.26468e-06
5.689e-08
6.29691e-06
1.31679e-07
6.30251e-06
-5.09079e-08
6.26496e-06
-5.99516e-07
6.24535e-06
-5.21747e-07
6.22281e-06
-3.18111e-07
6.23337e-06
-9.20479e-08
6.25502e-06
8.0407e-08
6.26757e-06
8.2351e-08
6.28196e-06
3.8321e-08
6.28367e-06
-4.71709e-08
6.277e-06
-1.16545e-07
6.26844e-06
-1.38971e-07
6.25565e-06
-1.62101e-07
6.24407e-06
-1.6372e-07
6.23537e-06
-1.35421e-07
6.22727e-06
-1.04842e-07
-7.87213e-08
6.22037e-06
6.55848e-06
-1.69223e-07
6.57059e-06
-3.38979e-08
6.56512e-06
6.23586e-08
6.59453e-06
1.02272e-07
6.60208e-06
-5.84575e-08
6.56394e-06
-5.61374e-07
6.54499e-06
-5.02805e-07
6.52524e-06
-2.98361e-07
6.53295e-06
-9.97571e-08
6.55407e-06
5.92856e-08
6.56623e-06
7.01975e-08
6.57878e-06
2.57652e-08
6.58101e-06
-4.93942e-08
6.5746e-06
-1.10133e-07
6.56612e-06
-1.30497e-07
6.55411e-06
-1.50092e-07
6.54285e-06
-1.52453e-07
6.53442e-06
-1.27e-07
6.52685e-06
-9.72648e-08
-7.22703e-08
6.5204e-06
6.873e-06
-1.52436e-07
6.88485e-06
-4.57485e-08
6.88035e-06
6.68605e-08
6.90584e-06
7.67805e-08
6.91571e-06
-6.83247e-08
6.87737e-06
-5.23036e-07
6.85789e-06
-4.83321e-07
6.84111e-06
-2.81583e-07
6.84657e-06
-1.05222e-07
6.8666e-06
3.92598e-08
6.87864e-06
5.81613e-08
6.88961e-06
1.47878e-08
6.89217e-06
-5.19481e-08
6.88632e-06
-1.04286e-07
6.87804e-06
-1.2222e-07
6.86674e-06
-1.38793e-07
6.85593e-06
-1.41637e-07
6.84783e-06
-1.18899e-07
6.8407e-06
-9.01426e-08
-6.63406e-08
6.83478e-06
7.20272e-06
-1.36017e-07
7.21402e-06
-5.70455e-08
7.21106e-06
6.9815e-08
7.23162e-06
5.62171e-08
7.24377e-06
-8.04721e-08
7.20607e-06
-4.85338e-07
7.18546e-06
-4.62708e-07
7.17168e-06
-2.67799e-07
7.17545e-06
-1.08997e-07
7.19371e-06
2.10043e-08
7.20558e-06
4.62926e-08
7.21522e-06
5.14436e-09
7.21798e-06
-5.47106e-08
7.21287e-06
-9.91711e-08
7.2049e-06
-1.14247e-07
7.19424e-06
-1.28141e-07
7.18396e-06
-1.31355e-07
7.17622e-06
-1.11156e-07
7.16959e-06
-8.35114e-08
-6.0862e-08
7.16411e-06
7.54836e-06
-1.20151e-07
7.55881e-06
-6.74952e-08
7.55793e-06
7.06924e-08
7.57339e-06
4.0759e-08
7.58691e-06
-9.39872e-08
7.55102e-06
-4.49455e-07
7.52875e-06
-4.40431e-07
7.51778e-06
-2.5683e-07
7.52047e-06
-1.11691e-07
7.53643e-06
5.04578e-09
7.54791e-06
3.48121e-08
7.55639e-06
-3.33793e-09
7.55926e-06
-5.75815e-08
7.555e-06
-9.49063e-08
7.54742e-06
-1.06668e-07
7.53737e-06
-1.18092e-07
7.52761e-06
-1.21599e-07
7.52031e-06
-1.03851e-07
7.51415e-06
-7.73494e-08
-5.58293e-08
7.50911e-06
7.9107e-06
-1.05043e-07
7.92001e-06
-7.68047e-08
7.92174e-06
6.89632e-08
7.93234e-06
3.01596e-08
7.94627e-06
-1.07916e-07
7.91376e-06
-4.1694e-07
7.89027e-06
-4.16943e-07
7.88122e-06
-2.47788e-07
7.88226e-06
-1.12725e-07
7.89557e-06
-8.26795e-09
7.90652e-06
2.38637e-08
7.91402e-06
-1.08377e-08
7.91686e-06
-6.04248e-08
7.91342e-06
-9.14589e-08
7.90638e-06
-9.96313e-08
7.89692e-06
-1.08635e-07
7.88763e-06
-1.12307e-07
7.88082e-06
-9.70439e-08
7.87515e-06
-7.16791e-08
-5.11969e-08
7.87052e-06
8.29055e-06
-9.09111e-08
8.29833e-06
-8.45866e-08
8.30335e-06
6.39489e-08
8.30957e-06
2.39374e-08
8.32349e-06
-1.21836e-07
8.29601e-06
-3.89464e-07
8.27094e-06
-3.9187e-07
8.26003e-06
-2.36875e-07
8.26022e-06
-1.1292e-07
8.27218e-06
-2.02229e-08
8.28245e-06
1.35932e-08
8.28903e-06
-1.74237e-08
8.29164e-06
-6.30315e-08
8.28894e-06
-8.87552e-08
8.28256e-06
-9.32573e-08
8.27372e-06
-9.97938e-08
8.26477e-06
-1.03354e-07
8.25849e-06
-9.07662e-08
8.25337e-06
-6.65596e-08
-4.69198e-08
8.24909e-06
8.68873e-06
-7.79798e-08
8.69455e-06
-9.04071e-08
8.7032e-06
5.52971e-08
8.70693e-06
2.02106e-08
8.71664e-06
-1.31542e-07
8.68854e-06
-3.61371e-07
8.66117e-06
-3.64496e-07
8.65256e-06
-2.28269e-07
8.65581e-06
-1.16163e-07
8.66728e-06
-3.16997e-08
8.67683e-06
4.04148e-09
8.68234e-06
-2.29322e-08
8.68442e-06
-6.51131e-08
8.68236e-06
-8.66907e-08
8.6767e-06
-8.75968e-08
8.66851e-06
-9.16061e-08
8.65988e-06
-9.47223e-08
8.654e-06
-8.48832e-08
8.64958e-06
-6.21435e-08
-4.29372e-08
8.6456e-06
9.10606e-06
-6.64227e-08
9.10962e-06
-9.39602e-08
9.12108e-06
4.38356e-08
9.12131e-06
1.99739e-08
9.12582e-06
-1.36048e-07
9.10374e-06
-3.39292e-07
9.07739e-06
-3.38148e-07
9.06736e-06
-2.18241e-07
9.07038e-06
-1.19175e-07
9.0814e-06
-4.27203e-08
9.09052e-06
-5.07633e-09
9.09495e-06
-2.73631e-08
9.09629e-06
-6.64597e-08
9.09472e-06
-8.51182e-08
9.08983e-06
-8.27047e-08
9.08233e-06
-8.4109e-08
9.07408e-06
-8.64763e-08
9.06837e-06
-7.91692e-08
9.06464e-06
-5.84151e-08
-3.93428e-08
9.06105e-06
9.54343e-06
-5.63921e-08
9.54435e-06
-9.4882e-08
9.55813e-06
3.00523e-08
9.55793e-06
2.01763e-08
9.55842e-06
-1.36541e-07
9.53894e-06
-3.19809e-07
9.51421e-06
-3.13415e-07
9.50284e-06
-2.06875e-07
9.50483e-06
-1.21162e-07
9.51532e-06
-5.32138e-08
9.52424e-06
-1.39942e-08
9.52777e-06
-3.08955e-08
9.52821e-06
-6.69009e-08
9.5269e-06
-8.38073e-08
9.52279e-06
-7.85909e-08
9.51606e-06
-7.73756e-08
9.50833e-06
-7.87483e-08
9.50261e-06
-7.3452e-08
9.49943e-06
-5.52322e-08
-3.63696e-08
9.49646e-06
1.00017e-05
-4.79603e-08
9.99997e-06
-9.3152e-08
1.00156e-05
1.44269e-08
1.00164e-05
1.93606e-08
1.00127e-05
-1.32836e-07
9.99453e-06
-3.01634e-07
9.97211e-06
-2.90996e-07
9.95994e-06
-1.94703e-07
9.96024e-06
-1.2146e-07
9.96998e-06
-6.29539e-08
9.97879e-06
-2.2808e-08
9.9818e-06
-3.39065e-08
9.98133e-06
-6.64304e-08
9.97996e-06
-8.24358e-08
9.97658e-06
-7.52049e-08
9.97064e-06
-7.14349e-08
9.96349e-06
-7.16064e-08
9.95776e-06
-6.77172e-08
9.95484e-06
-5.2315e-08
-3.41701e-08
9.95264e-06
1.04818e-05
-4.11442e-08
1.04778e-05
-8.90893e-08
1.04943e-05
-2.12955e-09
1.04973e-05
1.63922e-08
1.04898e-05
-1.25397e-07
1.04717e-05
-2.8353e-07
1.04517e-05
-2.70924e-07
1.04395e-05
-1.82529e-07
1.0438e-05
-1.1997e-07
1.04464e-05
-7.13108e-08
1.04551e-05
-3.15509e-08
1.0458e-05
-3.67537e-08
1.04567e-05
-6.51555e-08
1.0455e-05
-8.07316e-08
1.04522e-05
-7.24002e-08
1.0447e-05
-6.63083e-08
1.04406e-05
-6.51112e-08
1.04349e-05
-6.21014e-08
1.04321e-05
-4.94475e-08
-3.25888e-08
1.04305e-05
1.09847e-05
-3.58589e-08
1.09788e-05
-8.31724e-08
1.09953e-05
-1.85985e-08
1.10013e-05
1.03977e-08
1.09907e-05
-1.14797e-07
1.09716e-05
-2.64404e-07
1.09537e-05
-2.53108e-07
1.09423e-05
-1.71129e-07
1.09393e-05
-1.16947e-07
1.09457e-05
-7.77362e-08
1.09542e-05
-3.99833e-08
1.09571e-05
-3.96997e-08
1.09553e-05
-6.33438e-08
1.09531e-05
-7.85343e-08
1.09507e-05
-7.00218e-08
1.09464e-05
-6.19333e-08
1.09405e-05
-5.9302e-08
1.09352e-05
-5.67886e-08
1.09322e-05
-4.6394e-08
-3.14828e-08
1.09311e-05
1.15114e-05
-3.19078e-08
1.15043e-05
-7.60577e-08
1.15195e-05
-3.3823e-08
1.15286e-05
1.31208e-09
1.15158e-05
-1.02e-07
1.14951e-05
-2.43686e-07
1.14792e-05
-2.37263e-07
1.14693e-05
-1.61217e-07
1.14652e-05
-1.12795e-07
1.14695e-05
-8.20294e-08
1.14771e-05
-4.76222e-08
1.14803e-05
-4.28489e-08
1.14783e-05
-6.13441e-08
1.14756e-05
-7.58263e-08
1.14734e-05
-6.7861e-08
1.14697e-05
-5.82412e-08
1.14646e-05
-5.41536e-08
1.14597e-05
-5.19101e-08
1.14565e-05
-4.32103e-08
-3.04631e-08
1.14555e-05
1.20629e-05
-2.90061e-08
1.20553e-05
-6.8475e-08
1.20682e-05
-4.66458e-08
1.20794e-05
-9.92652e-09
1.20661e-05
-8.87063e-08
1.2044e-05
-2.21533e-07
1.20293e-05
-2.22635e-07
1.20213e-05
-1.53185e-07
1.20167e-05
-1.0819e-07
1.20189e-05
-8.42001e-08
1.20252e-05
-5.39703e-08
1.20285e-05
-4.6143e-08
1.20266e-05
-5.94426e-08
1.20235e-05
-7.27251e-08
1.20213e-05
-6.57108e-08
1.20183e-05
-5.51853e-08
1.20138e-05
-4.96499e-08
1.20093e-05
-4.74432e-08
1.20062e-05
-4.00974e-08
-2.9315e-08
1.20051e-05
1.26404e-05
-2.67959e-08
1.26326e-05
-6.06565e-08
1.26417e-05
-5.57833e-08
1.26544e-05
-2.26383e-08
1.26428e-05
-7.71339e-08
1.26198e-05
-1.98498e-07
1.26053e-05
-2.08172e-07
1.25991e-05
-1.46975e-07
1.25948e-05
-1.0389e-07
1.25951e-05
-8.44721e-08
1.25999e-05
-5.8748e-08
1.2603e-05
-4.93046e-08
1.26014e-05
-5.7796e-08
1.25981e-05
-6.94036e-08
1.25958e-05
-6.34795e-08
1.25933e-05
-5.26338e-08
1.25894e-05
-4.5803e-08
1.25853e-05
-4.33323e-08
1.25825e-05
-3.72226e-08
-2.79911e-08
1.25811e-05
1.3245e-05
-2.48818e-08
1.32368e-05
-5.24299e-08
1.32416e-05
-6.06121e-08
1.32554e-05
-3.64517e-08
1.32473e-05
-6.89504e-08
1.32241e-05
-1.75317e-07
1.32089e-05
-1.93035e-07
1.3204e-05
-1.42046e-07
1.32005e-05
-1.00376e-07
1.31994e-05
-8.34206e-08
1.32025e-05
-6.18373e-08
1.32052e-05
-5.19777e-08
1.32038e-05
-5.64413e-08
1.32005e-05
-6.60595e-08
1.31982e-05
-6.11456e-08
1.3196e-05
-5.04692e-08
1.31928e-05
-4.25918e-08
1.31891e-05
-3.96351e-08
1.31864e-05
-3.45461e-08
-2.66197e-08
1.3185e-05
1.38782e-05
-2.29657e-08
1.38716e-05
-4.57359e-08
1.38718e-05
-6.08483e-08
1.38847e-05
-4.93778e-08
1.38802e-05
-6.44567e-08
1.38579e-05
-1.5304e-07
1.38418e-05
-1.76923e-07
1.38372e-05
-1.37369e-07
1.38347e-05
-9.78813e-08
1.38331e-05
-8.18529e-08
1.38345e-05
-6.32267e-08
1.38364e-05
-5.39362e-08
1.38353e-05
-5.52822e-08
1.3832e-05
-6.27893e-08
1.38296e-05
-5.8732e-08
1.38277e-05
-4.85949e-08
1.38251e-05
-3.99616e-08
1.38219e-05
-3.64026e-08
1.38194e-05
-3.20513e-08
-2.52933e-08
1.3818e-05
1.45415e-05
-2.08156e-08
1.45359e-05
-4.00989e-08
1.4533e-05
-5.79979e-08
1.45436e-05
-5.99695e-08
1.45427e-05
-6.35565e-08
1.45226e-05
-1.32905e-07
1.45056e-05
-1.59935e-07
1.45002e-05
-1.31946e-07
1.44986e-05
-9.63033e-08
1.4497e-05
-8.03027e-08
1.44972e-05
-6.33675e-08
1.44982e-05
-5.4947e-08
1.44971e-05
-5.4169e-08
1.4494e-05
-5.96778e-08
1.44915e-05
-5.62542e-08
1.44898e-05
-4.69261e-08
1.44877e-05
-3.78747e-08
1.4485e-05
-3.36485e-08
1.44827e-05
-2.97438e-08
-2.40188e-08
1.44814e-05
1.52364e-05
-1.8376e-08
1.52325e-05
-3.61581e-08
1.52274e-05
-5.29106e-08
1.52342e-05
-6.67476e-08
1.5236e-05
-6.53951e-08
1.5219e-05
-1.15902e-07
1.52016e-05
-1.42536e-07
1.5195e-05
-1.25334e-07
1.51937e-05
-9.49496e-08
1.51924e-05
-7.90688e-08
1.5192e-05
-6.29329e-08
1.5192e-05
-5.49481e-08
1.51908e-05
-5.29283e-08
1.51878e-05
-5.67081e-08
1.51853e-05
-5.37221e-08
1.51837e-05
-4.53962e-08
1.51821e-05
-3.62557e-08
1.51799e-05
-3.14161e-08
1.51778e-05
-2.76334e-08
-2.28262e-08
1.51766e-05
1.59646e-05
-1.5692e-08
1.59621e-05
-3.35647e-08
1.59561e-05
-4.69582e-08
1.59587e-05
-6.93825e-08
1.59618e-05
-6.8415e-08
1.59483e-05
-1.02489e-07
1.59314e-05
-1.25561e-07
1.59235e-05
-1.1746e-07
1.59215e-05
-9.29865e-08
1.59207e-05
-7.82324e-08
1.59201e-05
-6.23025e-08
1.59194e-05
-5.42886e-08
1.59178e-05
-5.13651e-08
1.5915e-05
-5.38434e-08
1.59124e-05
-5.1169e-08
1.5911e-05
-4.39275e-08
1.59097e-05
-3.50049e-08
1.5908e-05
-2.96695e-08
1.59062e-05
-2.583e-08
-2.17118e-08
1.5905e-05
1.67278e-05
-1.28675e-08
1.67256e-05
-3.13509e-08
1.672e-05
-4.13645e-08
1.67192e-05
-6.85881e-08
1.67217e-05
-7.09669e-08
1.67118e-05
-9.25887e-08
1.66962e-05
-1.09968e-07
1.66872e-05
-1.08432e-07
1.66842e-05
-8.99697e-08
1.66834e-05
-7.74096e-08
1.66828e-05
-6.17112e-08
1.66818e-05
-5.33523e-08
1.668e-05
-4.95419e-08
1.66772e-05
-5.09992e-08
1.66746e-05
-4.85719e-08
1.66731e-05
-4.24406e-08
1.66721e-05
-3.40314e-08
1.66708e-05
-2.83796e-08
1.66694e-05
-2.43583e-08
-2.07117e-08
1.66684e-05
1.75276e-05
-1.00667e-08
1.75258e-05
-2.95737e-08
1.75207e-05
-3.63278e-08
1.75173e-05
-6.5107e-08
1.7518e-05
-7.17371e-08
1.75111e-05
-8.56386e-08
1.74975e-05
-9.64298e-08
1.74878e-05
-9.86817e-08
1.74836e-05
-8.5803e-08
1.74822e-05
-7.60024e-08
1.74817e-05
-6.12385e-08
1.74808e-05
-5.23562e-08
1.74789e-05
-4.76496e-08
1.7476e-05
-4.81762e-08
1.74734e-05
-4.59197e-08
1.74718e-05
-4.08811e-08
1.7471e-05
-3.31984e-08
1.74701e-05
-2.74837e-08
1.7469e-05
-2.32388e-08
-1.98608e-08
1.74681e-05
1.83657e-05
-7.42862e-09
1.83638e-05
-2.76246e-08
1.83597e-05
-3.22546e-08
1.83545e-05
-5.99402e-08
1.8353e-05
-7.02084e-08
1.83479e-05
-8.05789e-08
1.83367e-05
-8.5186e-08
1.83269e-05