/*--------------------------------*- C++ -*----------------------------------*\
| =========                 |                                                 |
| \\      /  F ield         | OpenFOAM: The Open Source CFD Toolbox           |
|  \\    /   O peration     | Version:  3.0.1                                 |
|   \\  /    A nd           | Web:      www.OpenFOAM.org                      |
|    \\/     M anipulation  |                                                 |
\*---------------------------------------------------------------------------*/
FoamFile
{
    version     2.0;
    format      ascii;
    class       volVectorField;
    location    "3.8";
    object      U;
}
// * * * * * * * * * * * * * * * * * * * * * * * * * * * * * * * * * * * * * //

dimensions      [0 1 -1 0 0 0 0];

internalField   nonuniform List<vector> 
9600
(
(0.837425 -0.00580251 0)
(1.13693 0.00460336 0)
(0.926269 -0.00123761 0)
(1.07469 0.0131548 0)
(0.8941 -0.00386052 0)
(1.06558 -0.0204798 0)
(1.00367 -0.0173054 0)
(1.12684 -0.0111618 0)
(1.00134 0.013446 0)
(1.10635 0.00897211 0)
(0.935967 0.0186878 0)
(1.07794 0.00771216 0)
(0.92775 -0.00463737 0)
(1.05221 -0.0101844 0)
(0.926432 -0.0205947 0)
(1.03442 -0.0208495 0)
(0.917682 -0.0227384 0)
(1.05164 -0.027733 0)
(0.897005 -0.01477 0)
(1.08419 -0.0363343 0)
(0.851735 -0.00570907 0)
(1.12766 0.00410546 0)
(0.941092 -0.000790473 0)
(1.06759 0.0135615 0)
(0.919146 -0.00380006 0)
(1.03865 -0.0216242 0)
(1.00415 -0.0183299 0)
(1.11295 -0.0109838 0)
(1.01033 0.0133117 0)
(1.08864 0.00989754 0)
(0.960354 0.0188364 0)
(1.04406 0.00801767 0)
(0.977602 -0.00421576 0)
(1.01106 -0.0101808 0)
(0.987051 -0.0199407 0)
(0.986551 -0.0208551 0)
(0.986485 -0.0227641 0)
(0.977862 -0.0280773 0)
(0.990121 -0.0144429 0)
(0.976271 -0.0382167 0)
(0.876067 -0.00564877 0)
(1.10765 0.00357294 0)
(0.9638 -0.000479239 0)
(1.05511 0.0138395 0)
(0.945702 -0.00359944 0)
(1.0093 -0.0222436 0)
(1.00567 -0.0191598 0)
(1.09011 -0.0109984 0)
(1.02489 0.0135129 0)
(1.06648 0.0107185 0)
(0.988609 0.0193821 0)
(1.02634 0.00783802 0)
(1.00561 -0.00376439 0)
(1.00588 -0.010303 0)
(1.00014 -0.0194824 0)
(0.989068 -0.0208474 0)
(0.986516 -0.0226095 0)
(0.982211 -0.0276319 0)
(0.984004 -0.0160518 0)
(0.985597 -0.0331044 0)
(0.905712 -0.00559604 0)
(1.08055 0.00304995 0)
(0.985563 -0.000174212 0)
(1.04005 0.0140279 0)
(0.966577 -0.00318373 0)
(0.98628 -0.0227189 0)
(1.00381 -0.0200767 0)
(1.06558 -0.0112375 0)
(1.03631 0.0138178 0)
(1.0517 0.0112404 0)
(1.00947 0.0198548 0)
(1.02588 0.00769243 0)
(1.01922 -0.00345361 0)
(1.01167 -0.0101946 0)
(1.00497 -0.0190263 0)
(0.994975 -0.020564 0)
(0.988386 -0.0222351 0)
(0.983405 -0.0277397 0)
(0.982816 -0.0158201 0)
(0.981569 -0.0317959 0)
(0.935183 -0.00553243 0)
(1.05269 0.00254383 0)
(1.00055 5.73125e-05 0)
(1.02576 0.0142263 0)
(0.980559 -0.00268199 0)
(0.974321 -0.0229945 0)
(0.997789 -0.0209683 0)
(1.04419 -0.0116453 0)
(1.04062 0.013911 0)
(1.04503 0.0115955 0)
(1.02283 0.0200894 0)
(1.03162 0.0076604 0)
(1.02753 -0.00318782 0)
(1.01745 -0.00994545 0)
(1.00944 -0.0184808 0)
(0.998381 -0.0202882 0)
(0.992289 -0.0218017 0)
(0.983409 -0.0274387 0)
(0.983329 -0.0159016 0)
(0.978641 -0.0303935 0)
(0.959919 -0.00546291 0)
(1.02957 0.00211277 0)
(1.00733 0.000213862 0)
(1.01479 0.0144217 0)
(0.990015 -0.00219361 0)
(0.972257 -0.0230822 0)
(0.99035 -0.0217547 0)
(1.02683 -0.0121913 0)
(1.0389 0.0137573 0)
(1.04226 0.0118189 0)
(1.0313 0.0201543 0)
(1.03737 0.00770046 0)
(1.03322 -0.00288836 0)
(1.02157 -0.0096109 0)
(1.01283 -0.0178887 0)
(1.00099 -0.0199547 0)
(0.994958 -0.0212726 0)
(0.984691 -0.0270165 0)
(0.982959 -0.0160279 0)
(0.977822 -0.0288031 0)
(0.977669 -0.005394 0)
(1.0137 0.00179846 0)
(1.00777 0.000296005 0)
(1.0081 0.0145698 0)
(0.997642 -0.00177131 0)
(0.976257 -0.0229964 0)
(0.984437 -0.0223595 0)
(1.01274 -0.0128118 0)
(1.0338 0.0134023 0)
(1.04006 0.0118884 0)
(1.03652 0.0201021 0)
(1.04136 0.00778878 0)
(1.03651 -0.0025355 0)
(1.02411 -0.00922627 0)
(1.01487 -0.017251 0)
(1.00316 -0.0195513 0)
(0.996726 -0.0207566 0)
(0.986435 -0.0264354 0)
(0.982643 -0.0161326 0)
(0.977672 -0.0270921 0)
(0.988607 -0.0053291 0)
(1.00452 0.00159862 0)
(1.00495 0.000316078 0)
(1.00518 0.0146286 0)
(1.00464 -0.00143031 0)
(0.982823 -0.0227633 0)
(0.98126 -0.0227511 0)
(1.00128 -0.0134507 0)
(1.02744 0.0128657 0)
(1.03697 0.0117908 0)
(1.039 0.0199457 0)
(1.04311 0.00791443 0)
(1.03748 -0.00215036 0)
(1.02509 -0.00880526 0)
(1.01575 -0.0165916 0)
(1.00466 -0.0191168 0)
(0.998093 -0.0202573 0)
(0.988068 -0.0257075 0)
(0.982813 -0.0161869 0)
(0.977696 -0.0253824 0)
(0.994423 -0.00526775 0)
(0.999942 0.00148644 0)
(1.00148 0.000291321 0)
(1.00467 0.0145723 0)
(1.01082 -0.00116794 0)
(0.989743 -0.0224163 0)
(0.980554 -0.0229226 0)
(0.992149 -0.0140601 0)
(1.02083 0.0121799 0)
(1.03257 0.0115473 0)
(1.03869 0.0196967 0)
(1.04248 0.00807571 0)
(1.03641 -0.00175271 0)
(1.02462 -0.00835974 0)
(1.01572 -0.0159544 0)
(1.00547 -0.0186593 0)
(0.999138 -0.0197672 0)
(0.989519 -0.0248804 0)
(0.983364 -0.0162013 0)
(0.977962 -0.0237063 0)
(0.997153 -0.0052067 0)
(0.997836 0.00143113 0)
(0.998718 0.000233774 0)
(1.00514 0.0144032 0)
(1.01554 -0.000974648 0)
(0.995848 -0.021988 0)
(0.981501 -0.022885 0)
(0.98527 -0.014598 0)
(1.01413 0.0114028 0)
(1.02679 0.0112008 0)
(1.03563 0.0193681 0)
(1.03966 0.00825286 0)
(1.03381 -0.00136686 0)
(1.02309 -0.00791506 0)
(1.01504 -0.015366 0)
(1.0057 -0.0181766 0)
(0.999843 -0.0193107 0)
(0.990759 -0.0239887 0)
(0.984131 -0.0161777 0)
(0.978518 -0.0220701 0)
(0.998389 -0.00514227 0)
(0.996814 0.00140685 0)
(0.996963 0.000152466 0)
(1.00555 0.0141448 0)
(1.01845 -0.000837654 0)
(1.00063 -0.0215114 0)
(0.983305 -0.0226682 0)
(0.980573 -0.0150224 0)
(1.00729 0.0105985 0)
(1.01997 0.0107936 0)
(1.0303 0.018965 0)
(1.03526 0.00841547 0)
(1.03033 -0.00102311 0)
(1.02093 -0.00749277 0)
(1.01398 -0.0148377 0)
(1.00553 -0.0176753 0)
(1.00022 -0.018905 0)
(0.991745 -0.0230616 0)
(0.984968 -0.0160897 0)
(0.979306 -0.0205042 0)
(0.999052 -0.00507304 0)
(0.996224 0.00139768 0)
(0.99599 5.84701e-05 0)
(1.00543 0.0138229 0)
(1.01975 -0.000746464 0)
(1.00401 -0.0210167 0)
(0.985364 -0.0223128 0)
(0.977899 -0.0153112 0)
(1.00061 0.0098188 0)
(1.01286 0.0103588 0)
(1.02374 0.0184898 0)
(1.03013 0.0085366 0)
(1.02664 -0.000750035 0)
(1.01856 -0.00709642 0)
(1.0128 -0.0143794 0)
(1.00513 -0.0171645 0)
(1.00034 -0.018541 0)
(0.992472 -0.0221261 0)
(0.985761 -0.015917 0)
(0.980209 -0.0190436 0)
(0.999536 -0.00499934 0)
(0.995846 0.00139623 0)
(0.995483 -3.73149e-05 0)
(1.00478 0.013461 0)
(1.0199 -0.000690741 0)
(1.00619 -0.0205261 0)
(0.987294 -0.0218627 0)
(0.97689 -0.0154596 0)
(0.994681 0.00910015 0)
(1.00635 0.00992007 0)
(1.01716 0.0179464 0)
(1.02506 0.00859746 0)
(1.02321 -0.000561599 0)
(1.01628 -0.00672742 0)
(1.01164 -0.0139883 0)
(1.00463 -0.0166524 0)
(1.00027 -0.0181925 0)
(0.992977 -0.021214 0)
(0.986451 -0.0156492 0)
(0.981114 -0.0177274 0)
(0.999957 -0.00492178 0)
(0.99561 0.00139816 0)
(0.995226 -0.00012458 0)
(1.00383 0.0130755 0)
(1.01941 -0.00066201 0)
(1.00749 -0.0200501 0)
(0.988911 -0.0213528 0)
(0.977013 -0.0154793 0)
(0.99003 0.00845738 0)
(1.00108 0.00949079 0)
(1.01144 0.0173418 0)
(1.02055 0.0085924 0)
(1.0203 -0.000457354 0)
(1.01425 -0.00638496 0)
(1.0106 -0.0136519 0)
(1.00413 -0.0161455 0)
(1.0001 -0.0178332 0)
(0.993322 -0.0203545 0)
(0.987028 -0.0152937 0)
(0.981951 -0.0165467 0)
(1.00032 -0.0048413 0)
(0.995477 0.00140176 0)
(0.995119 -0.000197674 0)
(1.00282 0.0126735 0)
(1.01864 -0.000653527 0)
(1.0082 -0.0195908 0)
(0.990173 -0.0208036 0)
(0.977723 -0.0153918 0)
(0.986778 0.007887 0)
(0.997177 0.00907741 0)
(1.00694 0.0166887 0)
(1.01679 0.00852813 0)
(1.01794 -0.000435614 0)
(1.01253 -0.00605744 0)
(1.00968 -0.0133642 0)
(1.00368 -0.0156437 0)
(0.999872 -0.0174416 0)
(0.993563 -0.0195676 0)
(0.987513 -0.0148684 0)
(0.982694 -0.0154705 0)
(1.00062 -0.00475827 0)
(0.99541 0.00140592 0)
(0.995128 -0.000255186 0)
(1.00191 0.0122568 0)
(1.01777 -0.000658843 0)
(1.00853 -0.0191473 0)
(0.991119 -0.0202277 0)
(0.978617 -0.0152188 0)
(0.98469 0.00737533 0)
(0.994414 0.00868602 0)
(1.00358 0.0159952 0)
(1.01377 0.00842183 0)
(1.01605 -0.000487958 0)
(1.01113 -0.00574838 0)
(1.00889 -0.0131009 0)
(1.0033 -0.0151617 0)
(0.999642 -0.0169994 0)
(0.993747 -0.01885 0)
(0.987938 -0.0143903 0)
(0.983347 -0.0144873 0)
(1.00085 -0.00467216 0)
(0.995384 0.0014076 0)
(0.995227 -0.000296558 0)
(1.00117 0.0118272 0)
(1.0169 -0.000672086 0)
(1.00861 -0.018717 0)
(0.991808 -0.0196319 0)
(0.979492 -0.0149807 0)
(0.983423 0.00690712 0)
(0.992481 0.00831996 0)
(1.00116 0.015265 0)
(1.01141 0.00828754 0)
(1.01456 -0.000597351 0)
(1.01 -0.00546106 0)
(1.00822 -0.012843 0)
(1.00299 -0.0147158 0)
(0.999428 -0.0164889 0)
(0.993904 -0.0181885 0)
(0.988325 -0.013886 0)
(0.983928 -0.0135664 0)
(1.00099 -0.0045824 0)
(0.99539 0.00140448 0)
(0.99538 -0.000322495 0)
(1.00065 0.0113858 0)
(1.01608 -0.000688945 0)
(1.00854 -0.0182987 0)
(0.992294 -0.0190202 0)
(0.980292 -0.0146922 0)
(0.982723 0.00646791 0)
(0.991165 0.00797771 0)
(0.99946 0.0145033 0)
(1.00961 0.00813278 0)
(1.0134 -0.000752838 0)
(1.00912 -0.00518806 0)
(1.00765 -0.0125819 0)
(1.00276 -0.0143049 0)
(0.999237 -0.015915 0)
(0.994056 -0.0175703 0)
(0.988693 -0.0133756 0)
(0.984454 -0.0126839 0)
(1.00105 -0.00448837 0)
(0.995432 0.00139448 0)
(0.995546 -0.000333985 0)
(1.00031 0.0109323 0)
(1.01532 -0.000704686 0)
(1.00837 -0.0178907 0)
(0.992626 -0.0183962 0)
(0.981037 -0.0143659 0)
(0.982444 0.00604555 0)
(0.990353 0.00765722 0)
(0.998346 0.0137089 0)
(1.00829 0.00795905 0)
(1.01249 -0.000942247 0)
(1.00842 -0.0049418 0)
(1.00715 -0.0122839 0)
(1.00258 -0.013946 0)
(0.999069 -0.0152868 0)
(0.994215 -0.0169681 0)
(0.989057 -0.0128988 0)
(0.984942 -0.0118256 0)
(1.00105 -0.00438956 0)
(0.995515 0.00137598 0)
(0.995695 -0.00033234 0)
(1.00014 0.0104663 0)
(1.01461 -0.000715533 0)
(1.00814 -0.0174891 0)
(0.992848 -0.0177639 0)
(0.98176 -0.0140096 0)
(0.982494 0.00562762 0)
(0.989958 0.007355 0)
(0.997677 0.0128844 0)
(1.00734 0.00777319 0)
(1.01176 -0.00114425 0)
(1.00785 -0.00473108 0)
(1.00669 -0.0119336 0)
(1.00244 -0.0136401 0)
(0.998918 -0.0146212 0)
(0.994382 -0.0163525 0)
(0.989427 -0.0124802 0)
(0.985412 -0.0109711 0)
(1.00099 -0.00428547 0)
(0.99564 0.00134831 0)
(0.995814 -0.000319738 0)
(1.00009 0.00998705 0)
(1.01394 -0.000719308 0)
(1.0079 -0.01709 0)
(0.992999 -0.0171266 0)
(0.982483 -0.0136284 0)
(0.982782 0.00520251 0)
(0.989878 0.00707061 0)
(0.997315 0.0120388 0)
(1.00665 0.00758047 0)
(1.01114 -0.00134585 0)
(1.00737 -0.00455621 0)
(1.00625 -0.0115332 0)
(1.00234 -0.0133648 0)
(0.99878 -0.0139454 0)
(0.994554 -0.0156939 0)
(0.989813 -0.0121125 0)
(0.985877 -0.0101478 0)
(1.00089 -0.00417607 0)
(0.995801 0.00131128 0)
(0.995904 -0.000297008 0)
(1.00011 0.00949386 0)
(1.01328 -0.000715031 0)
(1.00766 -0.0166908 0)
(0.99311 -0.0164872 0)
(0.983216 -0.0132284 0)
(0.983225 0.00476407 0)
(0.990004 0.00680601 0)
(0.997138 0.011178 0)
(1.0061 0.00737196 0)
(1.01058 -0.00153083 0)
(1.00693 -0.00443315 0)
(1.00581 -0.0110729 0)
(1.00227 -0.013105 0)
(0.998656 -0.0132825 0)
(0.994722 -0.0149778 0)
(0.990214 -0.0117956 0)
(0.986348 -0.00939573 0)
(1.00076 -0.00406135 0)
(0.995987 0.00126442 0)
(0.995975 -0.000264084 0)
(1.00017 0.00898821 0)
(1.01264 -0.000703037 0)
(1.00743 -0.0162888 0)
(0.993204 -0.0158508 0)
(0.983956 -0.0128093 0)
(0.983757 0.00431078 0)
(0.990242 0.00655101 0)
(0.997059 0.0103152 0)
(1.00563 0.00714203 0)
(1.01004 -0.00168472 0)
(1.00653 -0.00435544 0)
(1.00536 -0.0105637 0)
(1.0022 -0.0128475 0)
(0.998551 -0.0126529 0)
(0.994876 -0.0142129 0)
(0.990628 -0.011504 0)
(0.986835 -0.00874113 0)
(1.00062 -0.00394087 0)
(0.996185 0.00120744 0)
(0.996039 -0.000222072 0)
(1.00025 0.00847249 0)
(1.012 -0.000684115 0)
(1.00719 -0.015883 0)
(0.993299 -0.0152199 0)
(0.984697 -0.0123718 0)
(0.984338 0.0038426 0)
(0.99053 0.00630496 0)
(0.997029 0.00945894 0)
(1.0052 0.0068783 0)
(1.00951 -0.00180237 0)
(1.00615 -0.00432448 0)
(1.0049 -0.0100163 0)
(1.00214 -0.0125713 0)
(0.998474 -0.0120767 0)
(0.995011 -0.0134169 0)
(0.991047 -0.0111987 0)
(0.987342 -0.00818097 0)
(1.00048 -0.0038151 0)
(0.996382 0.00114132 0)
(0.99611 -0.000172091 0)
(1.00032 0.0079482 0)
(1.01137 -0.000659435 0)
(1.00695 -0.0154697 0)
(0.993404 -0.0145991 0)
(0.985426 -0.0119179 0)
(0.984949 0.00335923 0)
(0.990831 0.00606909 0)
(0.997026 0.00861248 0)
(1.00478 0.00658856 0)
(1.00898 -0.0018708 0)
(1.00579 -0.00433914 0)
(1.00444 -0.00944393 0)
(1.00206 -0.0122529 0)
(0.998431 -0.0115663 0)
(0.995129 -0.0126059 0)
(0.991465 -0.010862 0)
(0.987869 -0.00770688 0)
(1.00036 -0.00368398 0)
(0.996565 0.00106571 0)
(0.996195 -0.000114831 0)
(1.00038 0.00741616 0)
(1.01076 -0.000631064 0)
(1.0067 -0.0150471 0)
(0.993525 -0.013992 0)
(0.986134 -0.0114478 0)
(0.985584 0.00286466 0)
(0.991126 0.00583505 0)
(0.997043 0.00778838 0)
(1.00437 0.00626515 0)
(1.00845 -0.00188648 0)
(1.00543 -0.0043829 0)
(1.00399 -0.00887667 0)
(1.00198 -0.0118814 0)
(0.998425 -0.0111094 0)
(0.995231 -0.0117959 0)
(0.991876 -0.0104989 0)
(0.988417 -0.00732522 0)
(1.00026 -0.00354736 0)
(0.99673 0.000981109 0)
(0.996298 -5.14611e-05 0)
(1.00042 0.00687876 0)
(1.01016 -0.000601392 0)
(1.00643 -0.0146134 0)
(0.993667 -0.0134018 0)
(0.986816 -0.0109606 0)
(0.986238 0.00236236 0)
(0.991408 0.00559663 0)
(0.997075 0.00700286 0)
(1.00398 0.00589125 0)
(1.00792 -0.00185446 0)
(1.00509 -0.00444747 0)
(1.00355 -0.00832675 0)
(1.00187 -0.011453 0)
(0.998455 -0.0107041 0)
(0.995324 -0.0110066 0)
(0.992269 -0.0100892 0)
(0.988988 -0.00702945 0)
(1.00018 -0.00340533 0)
(0.996876 0.000887588 0)
(0.99642 1.6538e-05 0)
(1.00044 0.00634176 0)
(1.00958 -0.000574247 0)
(1.00615 -0.0141653 0)
(0.993828 -0.0128326 0)
(0.987471 -0.0104586 0)
(0.986907 0.00185453 0)
(0.991675 0.00534911 0)
(0.997114 0.0062608 0)
(1.00359 0.0054786 0)
(1.00739 -0.00178127 0)
(1.00475 -0.00450639 0)
(1.00312 -0.00780912 0)
(1.00174 -0.0109703 0)
(0.998517 -0.0103376 0)
(0.995417 -0.0102564 0)
(0.992637 -0.00960378 0)
(0.989575 -0.00681068 0)
(1.00013 -0.0032586 0)
(0.997005 0.000788075 0)
(0.996554 8.4976e-05 0)
(1.00045 0.00580828 0)
(1.009 -0.000550098 0)
(1.00586 -0.0137034 0)
(0.994009 -0.0122869 0)
(0.9881 -0.00994838 0)
(0.987586 0.00135047 0)
(0.991931 0.00508185 0)
(0.997155 0.00557429 0)
(1.00321 0.00502607 0)
(1.00686 -0.00168206 0)
(1.00441 -0.00454916 0)
(1.00272 -0.00733718 0)
(1.00159 -0.0104325 0)
(0.998605 -0.00999032 0)
(0.995522 -0.00956145 0)
(0.992973 -0.00905392 0)
(0.990166 -0.00663466 0)
(1.00009 -0.00310806 0)
(0.997124 0.000683962 0)
(0.996697 0.000155136 0)
(1.00046 0.00527847 0)
(1.00844 -0.000529417 0)
(1.00556 -0.0132275 0)
(0.994207 -0.011768 0)
(0.988707 -0.0094289 0)
(0.988267 0.000856556 0)
(0.99218 0.00479198 0)
(0.99719 0.00495222 0)
(1.00286 0.00452914 0)
(1.00633 -0.00157053 0)
(1.00407 -0.00456427 0)
(1.00234 -0.00691113 0)
(1.00142 -0.00985244 0)
(0.998707 -0.00963532 0)
(0.995648 -0.00894877 0)
(0.993274 -0.00846621 0)
(0.990748 -0.00644133 0)
(1.00006 -0.00295228 0)
(0.997236 0.000572128 0)
(0.996842 0.000226982 0)
(1.00045 0.00475763 0)
(1.00789 -0.000516422 0)
(1.00525 -0.0127373 0)
(0.994418 -0.0112759 0)
(0.989294 -0.00890151 0)
(0.988947 0.000379417 0)
(0.992428 0.00447707 0)
(0.997216 0.00438888 0)
(1.00252 0.00400855 0)
(1.0058 -0.00145391 0)
(1.00374 -0.004538 0)
(1.00198 -0.00653141 0)
(1.00123 -0.00925487 0)
(0.998813 -0.00925903 0)
(0.995798 -0.00841518 0)
(0.99355 -0.00786646 0)
(0.991303 -0.00619226 0)
(1.00004 -0.00279254 0)
(0.997347 0.000457215 0)
(0.996986 0.000295837 0)
(1.00045 0.00424646 0)
(1.00735 -0.000510382 0)
(1.00494 -0.0122322 0)
(0.994642 -0.0108096 0)
(0.989862 -0.00837723 0)
(0.989618 -6.8456e-05 0)
(0.992678 0.00412496 0)
(0.99723 0.00389111 0)
(1.00221 0.003483 0)
(1.00528 -0.00135141 0)
(1.0034 -0.00446505 0)
(1.00165 -0.00619306 0)
(1.00103 -0.0086596 0)
(0.998914 -0.00885585 0)
(0.995973 -0.0079392 0)
(0.993811 -0.00728353 0)
(0.991821 -0.00589543 0)
(1.00002 -0.0026306 0)
(0.997459 0.000340684 0)
(0.997126 0.00036342 0)
(1.00044 0.00374412 0)
(1.00682 -0.00051134 0)
(1.00463 -0.0117125 0)
(0.994876 -0.0103697 0)
(0.990413 -0.00785755 0)
(0.990276 -0.000488363 0)
(0.992933 0.00373981 0)
(0.997234 0.0034525 0)
(1.00191 0.00295103 0)
(1.00478 -0.00128305 0)
(1.00307 -0.00434917 0)
(1.00134 -0.00588019 0)
(1.00082 -0.00808018 0)
(0.999005 -0.00842248 0)
(0.996169 -0.00749997 0)
(0.994065 -0.00674382 0)
(0.992293 -0.00555726 0)
(1.00001 -0.00246526 0)
(0.997574 0.000218618 0)
(0.997261 0.000433678 0)
(1.00044 0.00325374 0)
(1.0063 -0.000523486 0)
(1.00433 -0.0111769 0)
(0.99512 -0.00995958 0)
(0.990945 -0.00734825 0)
(0.990917 -0.00087308 0)
(0.993197 0.00332514 0)
(0.997226 0.00306273 0)
(1.00164 0.00243709 0)
(1.0043 -0.00124501 0)
(1.00274 -0.00419719 0)
(1.00105 -0.00558373 0)
(1.00062 -0.00752023 0)
(0.999085 -0.00797583 0)
(0.996381 -0.00707949 0)
(0.994318 -0.00624952 0)
(0.992723 -0.0051892 0)
(0.999995 -0.00229642 0)
(0.997693 9.10007e-05 0)
(0.99739 0.000503481 0)
(1.00043 0.00278209 0)
(1.0058 -0.000548961 0)
(1.00402 -0.0106272 0)
(0.995374 -0.00957864 0)
(0.991461 -0.00685908 0)
(0.991536 -0.00121019 0)
(0.993469 0.00287831 0)
(0.997208 0.0027131 0)
(1.00137 0.00196201 0)
(1.00384 -0.00123568 0)
(1.00241 -0.00401888 0)
(1.00078 -0.00529834 0)
(1.00041 -0.00698941 0)
(0.999151 -0.00751671 0)
(0.996603 -0.00667953 0)
(0.994575 -0.0057935 0)
(0.993112 -0.00481604 0)
(0.999982 -0.00212737 0)
(0.997815 -3.77286e-05 0)
(0.997514 0.000571122 0)
(1.00042 0.00232854 0)
(1.00531 -0.000596392 0)
(1.00371 -0.0100639 0)
(0.995635 -0.00922562 0)
(0.991961 -0.00639129 0)
(0.992129 -0.0014966 0)
(0.993751 0.00240918 0)
(0.997186 0.00238574 0)
(1.00112 0.00153131 0)
(1.00341 -0.00125652 0)
(1.00209 -0.00382466 0)
(1.00053 -0.00501312 0)
(1.00022 -0.00649337 0)
(0.999203 -0.00704624 0)
(0.99683 -0.006298 0)
(0.994837 -0.00537996 0)
(0.99347 -0.00444484 0)
(0.999968 -0.00195613 0)
(0.997942 -0.000171563 0)
(0.997631 0.000644908 0)
(1.00041 0.00189368 0)
(1.00485 -0.000663507 0)
(1.0034 -0.00948465 0)
(0.9959 -0.00889396 0)
(0.992449 -0.00596189 0)
(0.992693 -0.0017277 0)
(0.994042 0.00194079 0)
(0.997165 0.00208026 0)
(1.00088 0.00114635 0)
(1.00301 -0.00129614 0)
(1.00178 -0.00362193 0)
(1.00029 -0.00472762 0)
(1.00002 -0.00602026 0)
(0.99924 -0.00658524 0)
(0.997054 -0.00592167 0)
(0.995108 -0.00499502 0)
(0.993802 -0.00408584 0)
(0.999955 -0.0017839 0)
(0.998074 -0.000306372 0)
(0.997743 0.000718575 0)
(1.00039 0.00149066 0)
(1.00441 -0.000759915 0)
(1.00309 -0.00889067 0)
(0.996167 -0.00857277 0)
(0.992927 -0.00558299 0)
(0.993229 -0.00190358 0)
(0.994341 0.00148166 0)
(0.997147 0.00178632 0)
(1.00065 0.000803895 0)
(1.00264 -0.00134696 0)
(1.00148 -0.00342244 0)
(1.00006 -0.00444603 0)
(0.99983 -0.00557957 0)
(0.999263 -0.00613998 0)
(0.997274 -0.00554852 0)
(0.995382 -0.00463359 0)
(0.994112 -0.00375216 0)
(0.999942 -0.00161427 0)
(0.99821 -0.000440096 0)
(0.99785 0.000783535 0)
(1.00036 0.00113494 0)
(1.00399 -0.000895159 0)
(1.00279 -0.00829235 0)
(0.99643 -0.00825544 0)
(0.993396 -0.00525373 0)
(0.993737 -0.00202898 0)
(0.994646 0.00103621 0)
(0.997139 0.00149416 0)
(1.00043 0.000504121 0)
(1.0023 -0.00140712 0)
(1.0012 -0.00322062 0)
(0.999837 -0.0041617 0)
(0.999644 -0.00516545 0)
(0.999274 -0.0057125 0)
(0.997488 -0.00519393 0)
(0.995658 -0.004295 0)
(0.994411 -0.00344631 0)
(0.999929 -0.00144524 0)
(0.998351 -0.000568007 0)
(0.997956 0.000827301 0)
(1.00033 0.000836917 0)
(1.00361 -0.00106243 0)
(1.00249 -0.00770318 0)
(0.996686 -0.00791819 0)
(0.993857 -0.00498625 0)
(0.994216 -0.00211629 0)
(0.994951 0.000624479 0)
(0.997139 0.00121012 0)
(1.00021 0.000239766 0)
(1.00198 -0.00148638 0)
(1.00095 -0.00304508 0)
(0.999631 -0.003884 0)
(0.999463 -0.00476925 0)
(0.999275 -0.00529928 0)
(0.997699 -0.00485524 0)
(0.995937 -0.00397813 0)
(0.994701 -0.00315884 0)
(0.999917 -0.00128587 0)
(0.998494 -0.000684773 0)
(0.99806 0.00085213 0)
(1.00029 0.000605201 0)
(1.00325 -0.00126012 0)
(1.00221 -0.00713313 0)
(0.996932 -0.00755126 0)
(0.994309 -0.00476752 0)
(0.994671 -0.00218401 0)
(0.995254 0.000258341 0)
(0.997148 0.000935067 0)
(1 2.1114e-06 0)
(1.0017 -0.00157553 0)
(1.00072 -0.00290758 0)
(0.999446 -0.00362274 0)
(0.999295 -0.00440794 0)
(0.99927 -0.00491535 0)
(0.997904 -0.00453889 0)
(0.996222 -0.00369281 0)
(0.994988 -0.00289457 0)
(0.999905 -0.00112618 0)
(0.99864 -0.000799977 0)
(0.998169 0.000846869 0)
(1.00024 0.000446531 0)
(1.00292 -0.00145684 0)
(1.00196 -0.00662625 0)
(0.997169 -0.00715093 0)
(0.994752 -0.00458288 0)
(0.995103 -0.00222017 0)
(0.995552 -5.04752e-05 0)
(0.997164 0.000670728 0)
(0.999801 -0.000212778 0)
(1.00144 -0.00166227 0)
(1.00053 -0.00279399 0)
(0.999283 -0.00336842 0)
(0.999136 -0.00406248 0)
(0.999261 -0.00455905 0)
(0.998107 -0.00424626 0)
(0.996513 -0.00342249 0)
(0.99528 -0.00266094 0)
(0.999893 -0.000979368 0)
(0.998787 -0.000892914 0)
(0.998286 0.00080738 0)
(1.00017 0.00034058 0)
(1.0026 -0.00165052 0)
(1.00172 -0.00615099 0)
(0.997401 -0.00674968 0)
(0.995184 -0.00443836 0)
(0.995519 -0.0022363 0)
(0.995842 -0.000306611 0)
(0.997186 0.000433925 0)
(0.999604 -0.000387668 0)
(1.0012 -0.00174292 0)
(1.00037 -0.0027063 0)
(0.999147 -0.00313567 0)
(0.998985 -0.00372057 0)
(0.999241 -0.00420781 0)
(0.998306 -0.00397311 0)
(0.996806 -0.00316801 0)
(0.995573 -0.00243956 0)
(0.999883 -0.000842737 0)
(0.998937 -0.000969524 0)
(0.998404 0.000718767 0)
(1.0001 0.00027821 0)
(1.00232 -0.00182329 0)
(1.00152 -0.00575089 0)
(0.997608 -0.00630886 0)
(0.995602 -0.0042554 0)
(0.995931 -0.0022797 0)
(0.996144 -0.000548978 0)
(0.997232 0.000203231 0)
(0.999419 -0.000531931 0)
(1.00098 -0.00181231 0)
(1.00023 -0.00264432 0)
(0.999034 -0.00293706 0)
(0.998839 -0.00339891 0)
(0.9992 -0.00386263 0)
(0.998488 -0.0037253 0)
(0.997099 -0.00294836 0)
(0.995866 -0.00223422 0)
(0.999875 -0.000716152 0)
(0.999078 -0.00102609 0)
(0.998536 0.000596808 0)
(1.00003 0.000258299 0)
(1.00204 -0.00193497 0)
(1.00135 -0.00540225 0)
(0.997822 -0.00582733 0)
(0.995996 -0.00405663 0)
(0.996319 -0.00236076 0)
(0.996442 -0.00080213 0)
(0.997291 -9.07919e-06 0)
(0.999247 -0.000643187 0)
(1.00077 -0.00185984 0)
(1.00014 -0.0026083 0)
(0.998967 -0.00277453 0)
(0.998725 -0.00311442 0)
(0.999156 -0.00353139 0)
(0.998664 -0.00349821 0)
(0.997408 -0.00276983 0)
(0.996166 -0.00204713 0)
(0.999867 -0.000610972 0)
(0.999216 -0.00104519 0)
(0.99868 0.000442083 0)
(0.999952 0.00026485 0)
(1.00178 -0.00195459 0)
(1.00121 -0.00506862 0)
(0.998033 -0.005405 0)
(0.996365 -0.0038582 0)
(0.996687 -0.00241333 0)
(0.996745 -0.00104977 0)
(0.997372 -0.000210619 0)
(0.999086 -0.000735673 0)
(1.00058 -0.00188566 0)
(1.00007 -0.00258354 0)
(0.998941 -0.00264026 0)
(0.998642 -0.00285902 0)
(0.999111 -0.00320791 0)
(0.998826 -0.0032572 0)
(0.997733 -0.00262106 0)
(0.99648 -0.0018755 0)
(0.999862 -0.000515789 0)
(0.999343 -0.00104164 0)
(0.998832 0.000257293 0)
(0.999891 0.000265631 0)
(1.00152 -0.0019061 0)
(1.00108 -0.00479981 0)
(0.99825 -0.00502614 0)
(0.996716 -0.00362479 0)
(0.997027 -0.00242715 0)
(0.997044 -0.001284 0)
(0.997478 -0.000431054 0)
(0.998948 -0.000814305 0)
(1.00039 -0.00187064 0)
(1.00002 -0.00253788 0)
(0.998954 -0.00251943 0)
(0.998595 -0.00262588 0)
(0.999069 -0.00290172 0)
(0.998959 -0.00300177 0)
(0.998055 -0.00249641 0)
(0.996812 -0.00174902 0)
(0.999859 -0.000440987 0)
(0.999461 -0.00100918 0)
(0.998993 7.30286e-05 0)
(0.999842 0.000242228 0)
(1.00128 -0.00181402 0)
(1.00098 -0.00452673 0)
(0.998474 -0.00468221 0)
(0.99705 -0.00339526 0)
(0.997339 -0.00241046 0)
(0.997338 -0.00148749 0)
(0.997613 -0.000649493 0)
(0.998842 -0.000879868 0)
(1.00022 -0.00182501 0)
(0.999983 -0.00248243 0)
(0.999001 -0.00242725 0)
(0.998583 -0.0024393 0)
(0.999037 -0.00263284 0)
(0.999068 -0.00275097 0)
(0.998364 -0.00237374 0)
(0.997171 -0.00167034 0)
(0.999857 -0.000380879 0)
(0.999565 -0.000948173 0)
(0.999155 -0.000131862 0)
(0.999814 0.000184461 0)
(1.00104 -0.00167035 0)
(1.00088 -0.00423514 0)
(0.998702 -0.00438438 0)
(0.997372 -0.0031844 0)
(0.997625 -0.00234297 0)
(0.99762 -0.00164273 0)
(0.997773 -0.000863194 0)
(0.998772 -0.00095868 0)
(1.00006 -0.00177517 0)
(0.999957 -0.00242355 0)
(0.999075 -0.00235114 0)
(0.998611 -0.0022789 0)
(0.999026 -0.00239374 0)
(0.999157 -0.00250593 0)
(0.998644 -0.00223152 0)
(0.997545 -0.00162443 0)
(0.999858 -0.000335926 0)
(0.999654 -0.00086911 0)
(0.999314 -0.00033131 0)
(0.99981 8.67848e-05 0)
(1.00082 -0.00149546 0)
(1.00079 -0.00392714 0)
(0.99893 -0.00412092 0)
(0.997691 -0.00299576 0)
(0.997888 -0.00224773 0)
(0.997883 -0.00174514 0)
(0.997951 -0.00105913 0)
(0.998739 -0.00105459 0)
(0.999922 -0.00172402 0)
(0.999939 -0.00234724 0)
(0.999176 -0.00227994 0)
(0.998675 -0.00213633 0)
(0.999037 -0.00218438 0)
(0.999237 -0.00228219 0)
(0.99889 -0.00207374 0)
(0.997917 -0.00158011 0)
(0.999859 -0.000304102 0)
(0.999727 -0.000781602 0)
(0.999465 -0.000499004 0)
(0.999833 -5.72989e-05 0)
(1.00063 -0.00131084 0)
(1.00069 -0.00357901 0)
(0.99915 -0.00387346 0)
(0.998007 -0.00284308 0)
(0.998133 -0.0021532 0)
(0.998125 -0.0017952 0)
(0.998138 -0.0012248 0)
(0.998743 -0.0011534 0)
(0.999811 -0.00167341 0)
(0.999926 -0.0022496 0)
(0.999294 -0.00220535 0)
(0.998773 -0.0020155 0)
(0.999071 -0.00199663 0)
(0.999317 -0.00208289 0)
(0.999109 -0.0019162 0)
(0.998268 -0.00152226 0)
(0.999862 -0.000278255 0)
(0.999786 -0.000694835 0)
(0.9996 -0.000633821 0)
(0.99988 -0.000224043 0)
(1.00046 -0.00113818 0)
(1.00059 -0.0032041 0)
(0.999351 -0.00362495 0)
(0.998317 -0.00273464 0)
(0.99837 -0.00206994 0)
(0.998346 -0.00180212 0)
(0.998327 -0.00134763 0)
(0.998781 -0.00124189 0)
(0.999729 -0.00163133 0)
(0.99992 -0.00215131 0)
(0.999422 -0.00213163 0)
(0.998902 -0.00191999 0)
(0.999128 -0.00183604 0)
(0.999396 -0.00190249 0)
(0.999306 -0.00177335 0)
(0.998587 -0.00144928 0)
(0.999865 -0.000259584 0)
(0.999831 -0.000604267 0)
(0.999717 -0.000716978 0)
(0.999949 -0.000401715 0)
(1.00034 -0.00100235 0)
(1.00048 -0.00283017 0)
(0.999524 -0.0033683 0)
(0.998617 -0.0026537 0)
(0.998603 -0.00200262 0)
(0.99855 -0.00178365 0)
(0.998509 -0.00142084 0)
(0.998843 -0.00131322 0)
(0.999674 -0.00159409 0)
(0.999919 -0.0020555 0)
(0.999555 -0.00205862 0)
(0.999056 -0.00184106 0)
(0.999213 -0.00170067 0)
(0.999478 -0.00173567 0)
(0.999487 -0.00164426 0)
(0.998879 -0.00136956 0)
(0.999869 -0.000242972 0)
(0.999867 -0.000521908 0)
(0.999811 -0.000738156 0)
(1.00003 -0.000584149 0)
(1.00025 -0.00092404 0)
(1.00038 -0.00247267 0)
(0.999665 -0.00309474 0)
(0.998902 -0.00257385 0)
(0.998837 -0.00196452 0)
(0.998745 -0.00175575 0)
(0.998684 -0.00145614 0)
(0.998922 -0.00136317 0)
(0.999645 -0.00155993 0)
(0.999923 -0.00195636 0)
(0.999689 -0.00198469 0)
(0.999229 -0.00177137 0)
(0.999323 -0.00158946 0)
(0.999563 -0.00158607 0)
(0.99965 -0.00152198 0)
(0.999146 -0.00129836 0)
(0.999872 -0.000222574 0)
(0.999896 -0.000456862 0)
(0.999881 -0.000709847 0)
(1.00011 -0.000739294 0)
(1.0002 -0.000903785 0)
(1.00029 -0.00215172 0)
(0.999773 -0.00279893 0)
(0.999158 -0.00247609 0)
(0.999066 -0.0019449 0)
(0.998936 -0.00172907 0)
(0.998851 -0.00146442 0)
(0.99901 -0.00138811 0)
(0.999638 -0.00152612 0)
(0.999933 -0.00185731 0)
(0.999817 -0.00190572 0)
(0.999415 -0.00171511 0)
(0.999458 -0.00150255 0)
(0.999656 -0.00146023 0)
(0.999797 -0.00140493 0)
(0.999387 -0.00123131 0)
(0.999874 -0.000199915 0)
(0.999923 -0.00040794 0)
(0.999931 -0.000649569 0)
(1.00019 -0.000849017 0)
(1.00018 -0.000923705 0)
(1.00021 -0.00187533 0)
(0.999852 -0.00249679 0)
(0.99938 -0.00235877 0)
(0.999287 -0.001923 0)
(0.999126 -0.00171836 0)
(0.999014 -0.00145969 0)
(0.999103 -0.00138655 0)
(0.999649 -0.00148355 0)
(0.999949 -0.00176214 0)
(0.999935 -0.00182064 0)
(0.999603 -0.00166562 0)
(0.999613 -0.00143692 0)
(0.999761 -0.00135838 0)
(0.99993 -0.00130141 0)
(0.9996 -0.00116502 0)
(0.999876 -0.000173245 0)
(0.999949 -0.000375134 0)
(0.999963 -0.000580394 0)
(1.00025 -0.000905755 0)
(1.0002 -0.00096618 0)
(1.00017 -0.00165134 0)
(0.999908 -0.00220324 0)
(0.999566 -0.0022119 0)
(0.999491 -0.00188715 0)
(0.999315 -0.00171469 0)
(0.99918 -0.00145787 0)
(0.999204 -0.00137328 0)
(0.999671 -0.00143323 0)
(0.999969 -0.0016708 0)
(1.00004 -0.00173531 0)
(0.999789 -0.0016139 0)
(0.999785 -0.00139087 0)
(0.99988 -0.00127689 0)
(1.00006 -0.00121231 0)
(0.999789 -0.00110092 0)
(0.999878 -0.000144827 0)
(0.999975 -0.00035304 0)
(0.999986 -0.000512047 0)
(1.0003 -0.000905662 0)
(1.00023 -0.00100998 0)
(1.00016 -0.00148788 0)
(0.999954 -0.00193251 0)
(0.999715 -0.00204 0)
(0.999671 -0.00183175 0)
(0.999497 -0.00170173 0)
(0.99935 -0.00145887 0)
(0.999314 -0.00135802 0)
(0.999706 -0.00137902 0)
(0.999992 -0.00157194 0)
(1.00014 -0.00164646 0)
(0.999963 -0.00155832 0)
(0.999966 -0.00135568 0)
(1.00002 -0.00121979 0)
(1.00018 -0.00113859 0)
(0.999959 -0.00104752 0)
(0.999879 -0.000115641 0)
(1 -0.000335799 0)
(1.00001 -0.000450292 0)
(1.00033 -0.00086432 0)
(1.00028 -0.00103111 0)
(1.00017 -0.00137496 0)
(0.999998 -0.00169653 0)
(0.999835 -0.0018589 0)
(0.999826 -0.00175131 0)
(0.999668 -0.00167744 0)
(0.99952 -0.00145802 0)
(0.999436 -0.00134238 0)
(0.999758 -0.00132992 0)
(1.00002 -0.00147552 0)
(1.00022 -0.00155123 0)
(1.00012 -0.00150271 0)
(1.00015 -0.00132177 0)
(1.00016 -0.00118526 0)
(1.0003 -0.00108201 0)
(1.00011 -0.0010039 0)
(0.99988 -8.71924e-05 0)
(1.00003 -0.000317778 0)
(1.00002 -0.000399624 0)
(1.00035 -0.000799962 0)
(1.00032 -0.00101948 0)
(1.00021 -0.00129166 0)
(1.00005 -0.00149818 0)
(0.999931 -0.00167922 0)
(0.999953 -0.00164207 0)
(0.999822 -0.00163345 0)
(0.999688 -0.00145155 0)
(0.999566 -0.00132795 0)
(0.999824 -0.00128539 0)
(1.00005 -0.00139311 0)
(1.00029 -0.00145144 0)
(1.00026 -0.00144037 0)
(1.00032 -0.00128798 0)
(1.00032 -0.00115933 0)
(1.00044 -0.00104491 0)
(1.00026 -0.000965731 0)
(0.999881 -6.19552e-05 0)
(1.00005 -0.000294205 0)
(1.00005 -0.000359758 0)
(1.00036 -0.000724922 0)
(1.00036 -0.000975463 0)
(1.00026 -0.001222 0)
(1.00011 -0.00134144 0)
(1.00001 -0.00150987 0)
(1.00006 -0.00151646 0)
(0.999955 -0.00156216 0)
(0.999849 -0.00143082 0)
(0.999705 -0.00131637 0)