/*--------------------------------*- C++ -*----------------------------------*\
| =========                 |                                                 |
| \\      /  F ield         | OpenFOAM: The Open Source CFD Toolbox           |
|  \\    /   O peration     | Version:  3.0.1                                 |
|   \\  /    A nd           | Web:      www.OpenFOAM.org                      |
|    \\/     M anipulation  |                                                 |
\*---------------------------------------------------------------------------*/
FoamFile
{
    version     2.0;
    format      ascii;
    class       volScalarField;
    location    "4.5";
    object      p;
}
// * * * * * * * * * * * * * * * * * * * * * * * * * * * * * * * * * * * * * //

dimensions      [0 2 -2 0 0 0 0];

internalField   nonuniform List<scalar> 
9600
(
-2.97594e-10
-0.00155375
-0.00307259
-0.00385593
-0.00129608
0.00348163
-0.00567441
-0.00767338
-0.0070187
-0.00539334
-0.00526805
-0.00601125
-0.0059013
-0.00522437
-0.00579178
-0.0059265
-0.00433955
-0.00351799
-0.000139726
0.00316677
8.6949e-06
-0.00156941
-0.00309009
-0.00383471
-0.0012849
0.00343035
-0.00563577
-0.00766802
-0.00701191
-0.00536995
-0.00529979
-0.00601059
-0.0058962
-0.00522855
-0.00579082
-0.00594
-0.00433704
-0.00357986
-0.000107846
0.00261354
1.747e-05
-0.00158884
-0.00309867
-0.00379758
-0.00128617
0.00336562
-0.00558533
-0.00766399
-0.00699436
-0.00533388
-0.0053392
-0.0060026
-0.00589134
-0.00524098
-0.00579096
-0.00595839
-0.00434502
-0.00364295
-0.000110902
0.00197318
2.01275e-05
-0.00161012
-0.00310064
-0.00376802
-0.00130058
0.00328309
-0.0055411
-0.00765605
-0.00696595
-0.00529459
-0.00538206
-0.00600105
-0.00588964
-0.00525986
-0.00579283
-0.00597707
-0.00436404
-0.00369482
-0.000173675
0.00145551
1.69078e-05
-0.00163352
-0.0030982
-0.00374961
-0.00132544
0.00318032
-0.00549795
-0.00764204
-0.00692619
-0.00525754
-0.00543691
-0.00601001
-0.00588829
-0.0052834
-0.00579618
-0.0060011
-0.00438476
-0.00375595
-0.000266516
0.000997441
8.88543e-06
-0.00165952
-0.00309262
-0.00373978
-0.00135928
0.00305932
-0.00544444
-0.00762561
-0.00687771
-0.00522976
-0.00550599
-0.006026
-0.00588594
-0.0053097
-0.00580059
-0.0060293
-0.00440761
-0.00382579
-0.000380984
0.000562752
-3.27753e-06
-0.00168843
-0.0030854
-0.00373646
-0.00140011
0.00292485
-0.00538194
-0.00761159
-0.00682532
-0.0052126
-0.00558479
-0.00604554
-0.00588276
-0.00533628
-0.00580439
-0.00606002
-0.00443334
-0.00389959
-0.000522918
0.000151987
-1.89301e-05
-0.00172031
-0.00307817
-0.00373794
-0.00144616
0.0027809
-0.0053127
-0.00760231
-0.00677222
-0.00520209
-0.00566811
-0.00606739
-0.00587859
-0.00536234
-0.00580765
-0.0060935
-0.00446211
-0.00397629
-0.000695727
-0.000239646
-3.73424e-05
-0.0017552
-0.00307193
-0.0037424
-0.00149655
0.00262962
-0.00523957
-0.00759751
-0.00671921
-0.00519374
-0.00575343
-0.00609121
-0.00587351
-0.00538925
-0.00581195
-0.00613
-0.00449525
-0.00405485
-0.000899565
-0.000610436
-5.78605e-05
-0.00179285
-0.00306666
-0.00374847
-0.00155118
0.00247215
-0.00516513
-0.00759594
-0.00666641
-0.0051851
-0.00583994
-0.00611718
-0.00586844
-0.00541861
-0.00581865
-0.0061693
-0.00453413
-0.00413363
-0.00113329
-0.000963948
-7.99764e-05
-0.0018329
-0.0030619
-0.00375567
-0.0016101
0.00230934
-0.00509076
-0.00759655
-0.00661423
-0.00517534
-0.0059274
-0.00614593
-0.00586403
-0.00545112
-0.00582878
-0.00621061
-0.00457961
-0.00421137
-0.00139547
-0.00130483
-0.000103312
-0.00187515
-0.0030574
-0.00376397
-0.00167319
0.00214189
-0.00501697
-0.0075986
-0.00656346
-0.00516432
-0.00601588
-0.00617803
-0.00586037
-0.00548718
-0.00584281
-0.00625298
-0.0046328
-0.00428779
-0.00168348
-0.0016376
-0.000127597
-0.00191945
-0.00305325
-0.00377347
-0.00174011
0.00197037
-0.00494379
-0.00760156
-0.00651509
-0.00515208
-0.00610542
-0.00621363
-0.00585761
-0.00552685
-0.00586077
-0.00629599
-0.00469515
-0.00436365
-0.00199307
-0.0019667
-0.000152648
-0.00196575
-0.00304977
-0.00378419
-0.00181042
0.0017952
-0.00487119
-0.00760503
-0.00646999
-0.00513865
-0.00619584
-0.0062529
-0.00585606
-0.00556965
-0.00588286
-0.00633993
-0.00476745
-0.00444033
-0.00232003
-0.00229671
-0.00017836
-0.00201404
-0.00304731
-0.00379607
-0.00188368
0.00161665
-0.00479928
-0.00760868
-0.00642895
-0.00512381
-0.00628689
-0.00629605
-0.00585586
-0.00561502
-0.00590958
-0.00638551
-0.00484975
-0.00451977
-0.00266106
-0.00263151
-0.00020469
-0.00206432
-0.00304626
-0.00380901
-0.00195957
0.00143492
-0.00472835
-0.0076122
-0.00639257
-0.0051072
-0.00637844
-0.00634321
-0.00585702
-0.00566284
-0.00594105
-0.00643372
-0.00494263
-0.00460426
-0.00301313
-0.00297318
-0.00023165
-0.00211663
-0.00304696
-0.00382289
-0.00203786
0.00125019
-0.00465887
-0.00761525
-0.0063614
-0.00508846
-0.00647033
-0.00639457
-0.00585951
-0.00571308
-0.00597683
-0.00648624
-0.00504755
-0.00469499
-0.00337285
-0.00332296
-0.000259306
-0.00217096
-0.00304978
-0.00383759
-0.00211845
0.00106266
-0.00459138
-0.00761739
-0.00633594
-0.00506736
-0.00656225
-0.00645047
-0.00586329
-0.00576578
-0.0060164
-0.00654467
-0.00516572
-0.00479159
-0.00373733
-0.00368344
-0.000287764
-0.00222727
-0.00305507
-0.00385301
-0.00220131
0.000872239
-0.00452651
-0.00761818
-0.0063167
-0.00504375
-0.00665381
-0.00651138
-0.00586804
-0.00582162
-0.00605937
-0.00660939
-0.00529848
-0.00489338
-0.00410361
-0.00405846
-0.000317173
-0.00228545
-0.00306323
-0.00386905
-0.00228645
0.000680258
-0.00446492
-0.00761723
-0.0063041
-0.0050176
-0.00674462
-0.00657796
-0.00587306
-0.00588167
-0.00610577
-0.0066796
-0.00544807
-0.00500057
-0.00446731
-0.00445137
-0.000347723
-0.00234533
-0.00307463
-0.00388559
-0.00237393
0.000486658
-0.00440724
-0.0076142
-0.0062986
-0.00498905
-0.00683393
-0.00665116
-0.00587765
-0.00594675
-0.00615672
-0.00675329
-0.00561661
-0.00511535
-0.00482228
-0.00486388
-0.000379648
-0.00240663
-0.0030897
-0.00390251
-0.0024639
0.000291899
-0.00435407
-0.0076089
-0.00630071
-0.00495861
-0.00692041
-0.0067323
-0.00588131
-0.00601685
-0.00621435
-0.00682771
-0.0058054
-0.00524153
-0.00516119
-0.00529578
-0.000413218
-0.00246905
-0.00310888
-0.00391973
-0.00255649
9.64474e-05
-0.00430598
-0.00760122
-0.00631074
-0.0049271
-0.00700268
-0.00682272
-0.00588365
-0.00609146
-0.0062817
-0.00690009
-0.00601407
-0.00538444
-0.00547674
-0.00574343
-0.000448749
-0.00253218
-0.00313264
-0.00393718
-0.00265184
-9.92841e-05
-0.00426351
-0.00759121
-0.00632885
-0.00489553
-0.00707924
-0.0069236
-0.00588473
-0.00616947
-0.00636257
-0.00696819
-0.00623991
-0.00555141
-0.00576338
-0.00619738
-0.0004866
-0.00259558
-0.00316149
-0.0039548
-0.00275011
-0.000294899
-0.00422704
-0.00757908
-0.00635513
-0.0048652
-0.00714822
-0.00703611
-0.00588548
-0.00624876
-0.00646092
-0.00703113
-0.00647727
-0.00575069
-0.00602113
-0.00664354
-0.000527181
-0.00265876
-0.00319598
-0.00397256
-0.00285137
-0.000490164
-0.00419684
-0.00756516
-0.00638926
-0.00483768
-0.00720826
-0.00716105
-0.00588743
-0.00632649
-0.00658035
-0.00709
-0.00671753
-0.00598896
-0.00625715
-0.00706457
-0.000570945
-0.00272117
-0.00323664
-0.0039905
-0.00295561
-0.000685012
-0.004173
-0.00755001
-0.00643056
-0.00481443
-0.0072588
-0.00729871
-0.00589264
-0.0063995
-0.0067231
-0.00714856
-0.00695101
-0.00626829
-0.00648447
-0.00744275
-0.000618386
-0.00278224
-0.003284
-0.00400868
-0.00306274
-0.000879475
-0.00415533
-0.00753441
-0.0064785
-0.00479686
-0.00729928
-0.00744858
-0.00590383
-0.00646433
-0.00689022
-0.00721387
-0.00716801
-0.00658396
-0.00672106
-0.00776677
-0.000670075
-0.00284131
-0.00333856
-0.00402726
-0.00317256
-0.0010738
-0.00414343
-0.00751924
-0.00653274
-0.00478629
-0.00732904
-0.00760976
-0.00592443
-0.00651757
-0.00708121
-0.00729487
-0.0073604
-0.00692542
-0.00698719
-0.00803864
-0.000726638
-0.00289769
-0.00340075
-0.00404653
-0.00328485
-0.00126844
-0.00413656
-0.00750544
-0.00659345
-0.00478354
-0.00734748
-0.00778117
-0.00595881
-0.00655664
-0.00729306
-0.00740097
-0.00752444
-0.00727729
-0.00729833
-0.00827466
-0.000788701
-0.00295076
-0.00347085
-0.00406689
-0.00339911
-0.00146421
-0.00413368
-0.00749363
-0.00666092
-0.00478944
-0.00735472
-0.00796145
-0.0060113
-0.00657964
-0.00752077
-0.00754149
-0.00766195
-0.0076207
-0.00765862
-0.00850183
-0.000856966
-0.00299984
-0.00354906
-0.00408898
-0.00351442
-0.00166225
-0.00413373
-0.00748377
-0.00673571
-0.00480499
-0.00735141
-0.00814887
-0.00608611
-0.00658574
-0.00775739
-0.00772412
-0.00777975
-0.00793685
-0.00805925
-0.0087534
-0.000932174
-0.00304431
-0.00363541
-0.00411363
-0.00362959
-0.00186391
-0.00413592
-0.00747541
-0.00681915
-0.0048311
-0.00733737
-0.00834156
-0.0061882
-0.0065759
-0.00799381
-0.00795396
-0.00788921
-0.00821097
-0.00848162
-0.00905664
-0.00101504
-0.00308366
-0.00372972
-0.00414181
-0.00374316
-0.00207075
-0.00414054
-0.00746729
-0.00691241
-0.0048688
-0.00731212
-0.00853728
-0.00632272
-0.00655315
-0.0082193
-0.00823297
-0.00800556
-0.00843579
-0.00890196
-0.0094196
-0.00110631
-0.00311745
-0.0038314
-0.0041749
-0.00385331
-0.00228432
-0.00414856
-0.00745724
-0.00701625
-0.00492
-0.00727599
-0.00873281
-0.00649398
-0.0065229
-0.00842236
-0.00855906
-0.00814527
-0.00861242
-0.00929661
-0.00982919
-0.00120669
-0.00314554
-0.0039393
-0.00421459
-0.00395817
-0.00250539
-0.00416152
-0.00744264
-0.00713113
-0.00498782
-0.00722953
-0.0089237
-0.00670511
-0.00649305
-0.00859131
-0.00892543
-0.00832453
-0.00874772
-0.00964855
-0.0102634
-0.00131686
-0.00316805
-0.00405188
-0.00426282
-0.0040559
-0.00273372
-0.00418225
-0.00742123
-0.00725604
-0.00507595
-0.00717412
-0.00910458
-0.00695751
-0.00647458
-0.00871583
-0.00932033
-0.00855939
-0.00885218
-0.00994664
-0.0107021
-0.00143737
-0.00318546
-0.00416703
-0.00432199
-0.00414519
-0.00296813
-0.00421484
-0.00739134
-0.00738849
-0.00518839
-0.00711303
-0.00926933
-0.00724982
-0.00648117
-0.00878992
-0.00972613
-0.0088633
-0.00894257
-0.0101799
-0.0111288
-0.00156863
-0.0031989
-0.00428166
-0.00439446
-0.00422607
-0.00320584
-0.00426332
-0.00735225
-0.00752521
-0.00532902
-0.00705131
-0.00941103
-0.00757686
-0.00652737
-0.00881532
-0.0101199
-0.00924119
-0.00904476
-0.010339
-0.011524
-0.00171091
-0.00320997
-0.00439212
-0.00448221
-0.00430004
-0.0034425
-0.00433192
-0.0073054
-0.00766166
-0.00550035
-0.00699515
-0.00952365
-0.0079301
-0.00662615
-0.00880241
-0.0104772
-0.00968436
-0.00919077
-0.0104278
-0.0118606
-0.00186421
-0.0032206
-0.00449451
-0.00458697
-0.00436996
-0.00367253
-0.00442459
-0.00725404
-0.00779177
-0.0057027
-0.00695238
-0.00960399
-0.00829908
-0.00678608
-0.00876641
-0.0107776
-0.0101727
-0.00940872
-0.0104688
-0.0121107
-0.00202831
-0.00323323
-0.00458477
-0.00470933
-0.00444028
-0.00389052
-0.00454268
-0.00720292
-0.00790998
-0.00593332
-0.00693185
-0.00965258
-0.00867182
-0.00701042
-0.00872533
-0.0110089
-0.0106807
-0.0097117
-0.0104978
-0.0122604
-0.00220271
-0.0032503
-0.00466002
-0.0048487
-0.00451605
-0.00409174
-0.00468511
-0.00716024
-0.00801282
-0.00618653
-0.00694154
-0.00967374
-0.00903657
-0.00729731
-0.00869773
-0.0111681
-0.0111825
-0.0100969
-0.0105535
-0.0123207
-0.00238664
-0.00327417
-0.00471877
-0.0050031
-0.00460252
-0.00427254
-0.00484905
-0.00713637
-0.0081005
-0.00645362
-0.00698604
-0.00967438
-0.0093841
-0.00763988
-0.00870074
-0.0112586
-0.0116533
-0.0105526
-0.0106658
-0.0123209
-0.00257914
-0.0033074
-0.00476047
-0.00516903
-0.00470649
-0.00443337
-0.00502725
-0.00713791
-0.00817606
-0.00672444
-0.0070659
-0.0096632
-0.00970855
-0.00802764
-0.00874905
-0.0112914
-0.0120699
-0.011061
-0.0108532
-0.0122954
-0.00277856
-0.00335234
-0.0047861
-0.00534215
-0.00483444
-0.00457666
-0.00520857
-0.007169
-0.00824457
-0.00699138
-0.00717956
-0.00964855
-0.010006
-0.00844784
-0.008853
-0.0112846
-0.012414
-0.0115977
-0.0111255
-0.0122777
-0.00298293
-0.00341149
-0.00479816
-0.00551677
-0.00499005
-0.00470715
-0.00538286
-0.0072292
-0.0083154
-0.00725138
-0.00732261
-0.00963649
-0.0102743
-0.00888832
-0.00901702
-0.0112605
-0.0126776
-0.0121331
-0.0114836
-0.0122976
-0.00319027
-0.00348725
-0.00480011
-0.00568656
-0.00517485
-0.00483352
-0.00554268
-0.00731415
-0.00839877
-0.00750568
-0.00748834
-0.00963082
-0.0105121
-0.00933839
-0.00924037
-0.0112406
-0.0128651
-0.0126377
-0.0119156
-0.0123806
-0.00339813
-0.00358162
-0.00479708
-0.00584403
-0.0053878
-0.00496755
-0.0056851
-0.00741624
-0.00850023
-0.00775719
-0.0076717
-0.00963433
-0.0107188
-0.00978779
-0.00951988
-0.0112432
-0.0129883
-0.0130874
-0.0123968
-0.0125461
-0.00360417
-0.00369584
-0.00479541
-0.00598203
-0.00562547
-0.00512217
-0.00581276
-0.00752395
-0.00861878
-0.00801031
-0.00787154
-0.00964964
-0.0108941
-0.0102256
-0.00984954
-0.0112834
-0.013063
-0.0134673
-0.012897
-0.0128007
-0.00380659
-0.00383041
-0.00480173
-0.00609647
-0.0058817
-0.00530782
-0.00593111
-0.0076263
-0.00875035
-0.00826912
-0.00808866
-0.00967979
-0.0110394
-0.0106415
-0.0102188
-0.0113724
-0.0131093
-0.0137734
-0.013386
-0.0131339
-0.004004
-0.00398455
-0.00482286
-0.00618619
-0.00614671
-0.00553113
-0.00604968
-0.00771646
-0.00888812
-0.0085347
-0.00832465
-0.00972853
-0.0111586
-0.0110279
-0.0106148
-0.0115133
-0.0131475
-0.0140101
-0.0138379
-0.0135224
-0.00419561
-0.0041558
-0.00486506
-0.00625286
-0.006409
-0.00579306
-0.00618236
-0.00779365
-0.00902279
-0.00880462
-0.00858017
-0.00980001
-0.0112574
-0.0113798
-0.0110255
-0.0117032
-0.0131939
-0.0141902
-0.0142351
-0.0139366
-0.00438143
-0.00434109
-0.00493266
-0.00630155
-0.00665789
-0.00608961
-0.00634277
-0.00786196
-0.009146
-0.00907389
-0.00885356
-0.0098985
-0.0113433
-0.0116934
-0.0114398
-0.0119389
-0.0132595
-0.0143287
-0.0145701
-0.0143463
-0.00456204
-0.00453604
-0.00502819
-0.00634194
-0.00688571
-0.00641156
-0.00653876
-0.0079297
-0.0092547
-0.00933555
-0.00914149
-0.0100267
-0.0114255
-0.0119678
-0.011844
-0.0122156
-0.0133541
-0.0144398
-0.014845
-0.0147278
-0.00473884
-0.00473691
-0.00515178
-0.0063856
-0.00708786
-0.00674368
-0.00677179
-0.00800906
-0.00935107
-0.00958369
-0.00943866
-0.0101837
-0.0115107
-0.012207
-0.0122274
-0.012523
-0.0134862
-0.0145378
-0.0150669
-0.0150678
-0.0049135
-0.00494061
-0.00530215
-0.00644273
-0.00726491
-0.00707052
-0.00703823
-0.00811137
-0.00943988
-0.00981616
-0.00973842
-0.0103668
-0.0116036
-0.0124172
-0.0125866
-0.0128481
-0.0136565
-0.0146376
-0.0152444
-0.01536
-0.00508775
-0.00514591
-0.00547586
-0.00651861
-0.00742068
-0.00738291
-0.0073301
-0.00824279
-0.00952808
-0.0100333
-0.0100366
-0.0105725
-0.011708
-0.0126011
-0.0129185
-0.0131813
-0.0138597
-0.0147522
-0.0153912
-0.0156026
-0.0052638
-0.00535282
-0.00566739
-0.00661509
-0.00756196
-0.00767731
-0.00763605
-0.00840366
-0.00962341
-0.010237
-0.0103308
-0.0107967
-0.0118269
-0.0127623
-0.0132166
-0.0135157
-0.0140914
-0.0148889
-0.015525
-0.0157996
-0.00544325
-0.00556039
-0.00587289
-0.00673317
-0.0076962
-0.00795253
-0.0079478
-0.00859239
-0.0097308
-0.0104288
-0.0106178
-0.0110361
-0.0119627
-0.0129086
-0.0134769
-0.0138391
-0.0143472
-0.0150495
-0.0156613
-0.0159659
-0.00562711
-0.00576866
-0.00608856
-0.00687236
-0.00782981
-0.00820879
-0.00826001
-0.00880479
-0.00985135
-0.010611
-0.010896
-0.0112881
-0.0121154
-0.0130471
-0.0137023
-0.0141384
-0.014617
-0.015233
-0.0158083
-0.0161223
-0.0058162
-0.00597788
-0.00631141
-0.00703145
-0.00796721
-0.00844867
-0.00856858
-0.00903687
-0.00998643
-0.010784
-0.011163
-0.0115494
-0.0122853
-0.0131816
-0.0138996
-0.0144079
-0.0148868
-0.0154355
-0.0159653
-0.0162791
-0.00601112
-0.00618842
-0.00653927
-0.00720875
-0.00811137
-0.00867461
-0.00886976
-0.00928523
-0.0101381
-0.010949
-0.0114145
-0.0118153
-0.0124741
-0.0133168
-0.0140716
-0.0146463
-0.0151451
-0.015651
-0.0161304
-0.0164359
-0.00621209
-0.00640062
-0.00677059
-0.00740215
-0.00826483
-0.00888882
-0.00916095
-0.00954563
-0.010307
-0.0111086
-0.0116474
-0.0120787
-0.0126809
-0.0134611
-0.0142225
-0.0148512
-0.015383
-0.0158708
-0.0163044
-0.0165904
-0.00641922
-0.00661502
-0.00700373
-0.00760916
-0.00842937
-0.00909423
-0.0094407
-0.00981363
-0.010493
-0.0112666
-0.0118601
-0.0123303
-0.0128978
-0.0136196
-0.0143646
-0.0150238
-0.0155922
-0.0160844
-0.0164874
-0.0167455
-0.00663243
-0.00683201
-0.00723764
-0.00782759
-0.00860606
-0.00929349
-0.00970726
-0.0100847
-0.0106951
-0.0114283
-0.0120543
-0.0125634
-0.0131133
-0.0137863
-0.0145065
-0.0151737
-0.0157678
-0.016279
-0.0166724
-0.016906
-0.00685142
-0.00705211
-0.00747119
-0.00805466
-0.00879598
-0.00949034
-0.00995975
-0.0103533
-0.0109098
-0.0115961
-0.0122347
-0.0127765
-0.013321
-0.0139513
-0.014644
-0.0153087
-0.0159119
-0.0164437
-0.0168458
-0.0170688
-0.00707553
-0.0072757
-0.00770442
-0.00828726
-0.00899842
-0.00968841
-0.0102
-0.0106156
-0.0111326
-0.0117701
-0.0124036
-0.0129681
-0.0135172
-0.0141123
-0.0147692
-0.0154272
-0.016029
-0.0165708
-0.0169911
-0.0172192
-0.00730407
-0.00750276
-0.00793727
-0.00852385
-0.00921214
-0.00988967
-0.0104298
-0.0108691
-0.0113601
-0.0119503
-0.0125638
-0.0131352
-0.0136924
-0.014267
-0.0148827
-0.0155257
-0.0161239
-0.016661
-0.0170958
-0.017341
-0.00753613
-0.0077333
-0.00816959
-0.00876172
-0.00943589
-0.0100981
-0.0106528
-0.0111113
-0.0115864
-0.0121351
-0.0127189
-0.0132814
-0.0138356
-0.0143996
-0.01498
-0.0155958
-0.0161915
-0.0167215
-0.017161
-0.0174242
-0.00777043
-0.00796578
-0.00840273
-0.00899885
-0.0096647
-0.0103149
-0.0108756
-0.0113454
-0.0118084
-0.0123202
-0.0128675
-0.0134097
-0.0139469
-0.014496
-0.0150504
-0.0156288
-0.0162142
-0.016742
-0.0171819
-0.0174593
-0.0080066
-0.00820119
-0.00863645
-0.00923459
-0.00989563
-0.0105362
-0.0110999
-0.0115783
-0.0120312
-0.012506
-0.0130084
-0.0135177
-0.0140231
-0.0145425
-0.0150743
-0.0156165
-0.0161815
-0.0167113
-0.017153
-0.0174426
-0.00824383
-0.00843837
-0.00886953
-0.00946807
-0.0101278
-0.0107603
-0.011324
-0.0118111
-0.0122635
-0.0127057
-0.0131519
-0.0136056
-0.0140544
-0.014512
-0.0150043
-0.0155194
-0.0160655
-0.0166075
-0.017069
-0.0173854
-0.00847887
-0.00867347
-0.00910449
-0.00970079
-0.0103564
-0.010983
-0.0115492
-0.0120446
-0.0125049
-0.0129425
-0.0133431
-0.0137085
-0.0140461
-0.014376
-0.0147488
-0.0151815
-0.0156759
-0.0162186
-0.0167569
-0.0172132
-0.00871021
-0.00890721
-0.00934011
-0.00993278
-0.0105812
-0.0111983
-0.0117653
-0.012272
-0.0127499
-0.01322
-0.0136615
-0.0140191
-0.0142361
-0.0143807
-0.0145618
-0.014802
-0.0150438
-0.015234
-0.0153699
-0.0155083
-0.00894211
-0.00913903
-0.00957092
-0.0101605
-0.010801
-0.0114044
-0.01196
-0.0124711
-0.0129327
-0.0132798
-0.0135233
-0.0137422
-0.0139711
-0.0142159
-0.0144572
-0.0146853
-0.0149001
-0.0151091
-0.0153461
-0.0156554
-0.00917756
-0.00936458
-0.00979159
-0.0103773
-0.0110193
-0.011622
-0.0121126
-0.0124762
-0.0128024
-0.013124
-0.0134564
-0.0138038
-0.0141387
-0.014454
-0.0147336
-0.0149445
-0.0150887
-0.0151731
-0.0152327
-0.0153454
-0.0094293
-0.00958738
-0.009956
-0.0104651
-0.0110252
-0.0115543
-0.0120284
-0.01244
-0.012828
-0.0132094
-0.0135615
-0.013893
-0.0141893
-0.0144524
-0.0147498
-0.0151143
-0.015585
-0.0161585
-0.016786
-0.0173829
-0.00969922
-0.00987273
-0.0101409
-0.0105369
-0.0110272
-0.0115426
-0.0120548
-0.0125281
-0.0129552
-0.0133582
-0.0137164
-0.0140208
-0.0143043
-0.0145375
-0.0147287
-0.014884
-0.0149854
-0.0150569
-0.0151429
-0.0153305
-0.00987919
-0.0100399
-0.0102818
-0.010635
-0.0110867
-0.0115876
-0.0120991
-0.0125839
-0.0130241
-0.0134199
-0.0137749
-0.0140637
-0.0143173
-0.014533
-0.0147103
-0.0148841
-0.0150683
-0.0152851
-0.0155573
-0.0159356
0.00732246
0.000856846
-0.00870368
-0.0158515
-0.0184326
-0.0181254
-0.0174369
-0.017384
-0.0179284
-0.0187428
-0.0195403
-0.0200639
-0.0202191
-0.0203039
-0.0206444
-0.0211346
-0.0215626
-0.0219268
-0.0222216
-0.022434
-0.0226611
-0.0229761
-0.023362
-0.0237708
-0.0241358
-0.0244695
-0.0248507
-0.0252931
-0.0257532
-0.0262208
-0.0267334
-0.0273008
-0.0278495
-0.0283352
-0.0288317
-0.0293936
-0.0299541
-0.0304452
-0.0309264
-0.031469
-0.0320366
-0.0325693
-0.0330689
-0.0335769
-0.0341484
-0.0347729
-0.0354397
-0.0361505
-0.0368377
-0.0374163
-0.0379481
-0.0385345
-0.0391719
-0.0398214
-0.0405054
-0.0412296
-0.041965
-0.0426905
-0.0434039
-0.0441235
-0.0448762
-0.0456467
-0.0464097
-0.0471891
-0.0479905
-0.0487798
-0.0495857
-0.0504255
-0.0512871
-0.052147
-0.0530163
-0.0538784
-0.0547554
-0.0556611
-0.0565828
-0.0575258
-0.0584814
-0.0594769
-0.0604801
-0.061508
-0.0625165
-0.0635582
-0.0646206
-0.0657264
-0.0668467
-0.0679842
-0.069137
-0.0702945
-0.0714942
-0.0726904
-0.0739386
-0.0751761
-0.0764542
-0.0777501
-0.0790454
-0.0803477
-0.0816649
-0.0829308
-0.0840349
-0.0852242
0.00622717
0.000699494
-0.00861614
-0.0157188
-0.0183467
-0.0180805
-0.0174069
-0.0173626
-0.0179134
-0.0187323
-0.0195331
-0.0200591
-0.0202152
-0.0202999
-0.0206405
-0.0211312
-0.0215594
-0.021924
-0.0222192
-0.0224316
-0.0226588
-0.0229738
-0.02336
-0.023769
-0.0241342
-0.0244678
-0.0248491
-0.0252916
-0.0257518
-0.0262194
-0.026732
-0.0272995
-0.0278483
-0.0283341
-0.0288305
-0.0293925
-0.0299531
-0.0304443
-0.0309254
-0.0314681
-0.0320357
-0.0325685
-0.0330682
-0.0335762
-0.0341478
-0.0347723
-0.0354391
-0.03615
-0.0368373
-0.0374159
-0.0379476
-0.0385341
-0.0391715
-0.0398211
-0.040505
-0.0412293
-0.0419647
-0.0426902
-0.0434036
-0.0441232
-0.0448759
-0.0456464
-0.0464095
-0.0471888
-0.0479903
-0.0487796
-0.0495854
-0.0504253
-0.0512869
-0.0521468
-0.0530161
-0.0538782
-0.0547552
-0.0556609
-0.0565826
-0.0575257
-0.0584813
-0.0594767
-0.06048
-0.0615078
-0.0625164
-0.0635581
-0.0646204
-0.0657262
-0.0668466
-0.0679841
-0.0691369
-0.0702944
-0.0714941
-0.0726903
-0.0739385
-0.075176
-0.0764541
-0.07775
-0.0790454
-0.0803476
-0.0816648
-0.0829307
-0.0840348
-0.0852241
0.00534112
0.00061719
-0.00841119
-0.0154689
-0.0182049
-0.0180285
-0.0173823
-0.0173422
-0.0178951
-0.0187165
-0.0195203
-0.0200497
-0.020209
-0.0202956
-0.0206373
-0.0211284
-0.0215566
-0.0219213
-0.0222168
-0.0224293
-0.0226566
-0.0229717
-0.023358
-0.0237673
-0.0241327
-0.0244663
-0.0248476
-0.0252902
-0.0257506
-0.0262182
-0.0267308
-0.0272984
-0.0278474
-0.0283331
-0.0288295
-0.0293916
-0.0299523
-0.0304435
-0.0309246
-0.0314673
-0.0320351
-0.0325679
-0.0330676
-0.0335755
-0.0341471
-0.0347717
-0.0354385
-0.0361495
-0.036837
-0.0374155
-0.0379472
-0.0385337
-0.0391711
-0.0398207
-0.0405046
-0.041229
-0.0419644
-0.0426899
-0.0434034
-0.0441229
-0.0448756
-0.0456462
-0.0464092
-0.0471886
-0.0479901
-0.0487794
-0.0495852
-0.0504251
-0.0512867
-0.0521466
-0.053016
-0.053878
-0.054755
-0.0556607
-0.0565825
-0.0575255
-0.0584811
-0.0594766
-0.0604798
-0.0615077
-0.0625163
-0.063558
-0.0646203
-0.0657261
-0.0668465
-0.067984
-0.0691368
-0.0702943
-0.071494
-0.0726902
-0.0739384
-0.0751759
-0.076454
-0.0777499
-0.0790453
-0.0803476
-0.0816647
-0.0829306
-0.0840347
-0.085224
0.00453976
0.000517343
-0.00817619
-0.0151702
-0.0180216
-0.0179622
-0.0173517
-0.0173146
-0.0178694
-0.0186933
-0.0194981
-0.0200302
-0.0201953
-0.0202881
-0.0206333
-0.0211252
-0.021553
-0.0219176
-0.0222136
-0.0224267
-0.0226542
-0.0229694
-0.0233558
-0.0237654
-0.024131
-0.0244647
-0.024846
-0.0252887
-0.0257492
-0.026217
-0.0267297
-0.0272973
-0.0278464
-0.0283321
-0.0288286
-0.0293907
-0.0299514
-0.0304426
-0.0309237
-0.0314664
-0.0320343
-0.0325672
-0.0330669
-0.0335748
-0.0341464
-0.034771
-0.0354379
-0.0361491
-0.0368367
-0.0374152
-0.0379468
-0.0385332
-0.0391707
-0.0398203
-0.0405043
-0.0412286
-0.0419642
-0.0426897
-0.0434031
-0.0441227
-0.0448754
-0.045646
-0.046409
-0.0471884
-0.0479899
-0.0487792
-0.049585
-0.0504249
-0.0512865
-0.0521465
-0.0530158
-0.0538779
-0.0547549
-0.0556606
-0.0565823
-0.0575254
-0.058481
-0.0594764
-0.0604797
-0.0615076
-0.0625162
-0.0635579
-0.0646202
-0.065726
-0.0668464
-0.0679838
-0.0691367
-0.0702942
-0.0714939
-0.0726901
-0.0739383
-0.0751758
-0.0764539
-0.0777498
-0.0790452
-0.0803475
-0.0816647
-0.0829306
-0.0840347
-0.085224
0.00372888
0.000355528
-0.00794841
-0.01486
-0.017824
-0.0178899
-0.0173186
-0.0172819
-0.0178371
-0.0186623
-0.0194655
-0.0199988
-0.0201722
-0.0202753
-0.0206268
-0.0211202
-0.0215476
-0.0219121
-0.0222089
-0.0224233
-0.0226516
-0.0229669
-0.0233531
-0.023763
-0.0241292
-0.0244631
-0.0248442
-0.0252867
-0.0257476
-0.0262158
-0.0267285
-0.027296
-0.0278451
-0.0283311
-0.0288276
-0.0293897
-0.0299504
-0.0304416
-0.0309228
-0.0314656
-0.0320334
-0.0325663
-0.0330661
-0.033574
-0.0341456
-0.0347702
-0.0354372
-0.0361486
-0.0368363
-0.0374148
-0.0379462
-0.0385327
-0.0391703
-0.0398199
-0.0405038
-0.0412283
-0.0419639
-0.0426894
-0.0434028
-0.0441224
-0.0448751
-0.0456457
-0.0464088
-0.0471882
-0.0479897
-0.048779
-0.0495848
-0.0504247
-0.0512864
-0.0521463
-0.0530156
-0.0538777
-0.0547547
-0.0556604
-0.0565821
-0.0575252
-0.0584808
-0.0594763
-0.0604796
-0.0615075
-0.062516
-0.0635577
-0.0646201
-0.0657259
-0.0668463
-0.0679837
-0.0691366
-0.0702941
-0.0714938
-0.07269
-0.0739382
-0.0751758
-0.0764538
-0.0777498
-0.0790451
-0.0803474
-0.0816646
-0.0829307
-0.0840348
-0.085224
0.00290863
0.000137423
-0.0077264
-0.0145429
-0.0176178
-0.0178147
-0.0172864
-0.0172479
-0.0178012
-0.0186268
-0.0194264
-0.0199591
-0.0201418
-0.0202579
-0.0206171
-0.0211125
-0.0215396
-0.0219041
-0.0222022
-0.0224187
-0.0226486
-0.022964
-0.0233498
-0.02376
-0.0241273
-0.0244619
-0.0248425
-0.0252845
-0.0257457
-0.0262146
-0.0267274
-0.0272944
-0.0278434
-0.0283299
-0.0288268
-0.0293886
-0.029949
-0.0304404
-0.0309219
-0.0314646
-0.0320323
-0.0325653
-0.0330651
-0.0335731
-0.0341445
-0.0347691
-0.0354364
-0.036148
-0.0368359
-0.0374142
-0.0379456
-0.0385321
-0.0391698
-0.0398194
-0.0405033
-0.0412278
-0.0419635
-0.0426891
-0.0434025
-0.044122
-0.0448748
-0.0456454
-0.0464085
-0.0471879
-0.0479895
-0.0487788
-0.0495846
-0.0504245
-0.0512861
-0.0521461
-0.0530155
-0.0538775
-0.0547545
-0.0556602
-0.056582
-0.057525
-0.0584806
-0.0594761
-0.0604794
-0.0615073
-0.0625159
-0.0635576
-0.0646199
-0.0657257
-0.0668462
-0.0679836
-0.0691365
-0.070294
-0.0714937
-0.0726899
-0.0739381
-0.0751757
-0.0764537
-0.0777497
-0.0790451
-0.0803474
-0.0816646
-0.0829308
-0.0840351
-0.0852241
0.00209214
-0.000126167
-0.00751
-0.0142202
-0.0174033
-0.0177357
-0.0172551
-0.0172135
-0.0177627
-0.0185884
-0.0193842
-0.0199156
-0.0201076
-0.0202377
-0.0206051
-0.021102
-0.0215287
-0.0218934
-0.0221934
-0.0224131
-0.0226452
-0.0229607
-0.0233458
-0.0237564
-0.0241254
-0.0244612
-0.0248413
-0.0252822
-0.0257436
-0.0262135
-0.0267263
-0.0272923
-0.0278412
-0.0283285
-0.028826
-0.0293873
-0.0299472
-0.0304389
-0.0309209
-0.0314637
-0.032031
-0.0325639
-0.0330641
-0.033572
-0.0341432
-0.0347677
-0.0354353
-0.0361473
-0.0368353
-0.0374135
-0.0379448
-0.0385314
-0.0391691
-0.0398187
-0.0405027
-0.0412273
-0.041963
-0.0426886
-0.043402
-0.0441216
-0.0448744
-0.0456451
-0.0464082
-0.0471876
-0.0479892
-0.0487785
-0.0495843
-0.0504242
-0.0512859
-0.0521459
-0.0530153
-0.0538773
-0.0547542
-0.05566
-0.0565818
-0.0575249
-0.0584804
-0.0594759
-0.0604792
-0.0615072
-0.0625157
-0.0635574
-0.0646197
-0.0657256
-0.066846
-0.0679835
-0.0691364
-0.0702939
-0.0714936
-0.0726898
-0.073938
-0.0751756
-0.0764536
-0.0777496
-0.079045
-0.0803473
-0.0816646
-0.0829309
-0.0840355
-0.0852244
0.00129078
-0.000433281
-0.00730584
-0.0138942
-0.0171794
-0.0176509
-0.0172241
-0.0171791
-0.0177219
-0.0185475
-0.01934
-0.0198701
-0.0200716
-0.0202161
-0.0205915
-0.0210895
-0.0215154
-0.0218804
-0.0221829
-0.0224066
-0.0226414
-0.0229571
-0.0233413
-0.0237521
-0.0241232
-0.0244609
-0.0248407
-0.0252805
-0.0257419
-0.0262127
-0.0267253
-0.0272899
-0.0278383
-0.0283269
-0.0288251
-0.0293855
-0.0299446
-0.0304369
-0.0309199
-0.0314626
-0.0320294
-0.0325624
-0.033063
-0.033571
-0.0341417
-0.034766
-0.035434
-0.0361464
-0.0368344
-0.0374125
-0.0379439
-0.0385307
-0.0391684
-0.0398179
-0.0405019
-0.0412266
-0.0419624
-0.042688
-0.0434015
-0.044121
-0.0448739
-0.0456446
-0.0464078
-0.0471872
-0.0479889
-0.0487782
-0.049584
-0.0504239
-0.0512857
-0.0521457
-0.0530151
-0.0538771
-0.054754
-0.0556598
-0.0565816
-0.0575247
-0.0584802
-0.0594757
-0.0604791
-0.061507
-0.0625156
-0.0635572
-0.0646196
-0.0657254
-0.0668459
-0.0679833
-0.0691362
-0.0702937
-0.0714935
-0.0726897
-0.0739379
-0.0751755
-0.0764535
-0.0777495
-0.079045
-0.0803473
-0.0816645
-0.0829312
-0.0840361
-0.0852248
0.000513154
-0.000784398
-0.00712078
-0.0135662
-0.0169447
-0.0175584
-0.0171928
-0.0171453
-0.0176794
-0.0185044
-0.0192942
-0.0198231
-0.0200342
-0.0201933
-0.0205771
-0.0210759
-0.0215006
-0.0218658
-0.0221711
-0.0223992
-0.0226372
-0.0229532
-0.0233364
-0.0237473
-0.0241206
-0.0244606
-0.0248406
-0.0252793
-0.0257408
-0.0262126
-0.0267245
-0.0272871
-0.027835
-0.0283252
-0.0288243
-0.0293834
-0.0299413
-0.0304343
-0.0309185
-0.0314613
-0.0320275
-0.0325606
-0.033062
-0.0335702
-0.0341402
-0.0347642
-0.0354325
-0.0361452
-0.0368331
-0.0374112
-0.0379428
-0.0385298
-0.0391675
-0.039817
-0.040501
-0.0412258
-0.0419617
-0.0426873
-0.0434008
-0.0441204
-0.0448732
-0.045644
-0.0464072
-0.0471867
-0.0479884
-0.0487778
-0.0495836
-0.0504236
-0.0512854
-0.0521454
-0.0530149
-0.0538769
-0.0547537
-0.0556596
-0.0565813
-0.0575244
-0.05848
-0.0594755
-0.0604789
-0.0615068
-0.0625154
-0.063557
-0.0646193
-0.0657252
-0.0668457
-0.0679832
-0.0691361
-0.0702935
-0.0714933
-0.0726896
-0.0739377
-0.0751753
-0.0764534
-0.0777495
-0.0790449
-0.0803473
-0.0816645
-0.0829316
-0.084037
-0.0852254
-0.000234286
-0.00117768
-0.00696036
-0.013238
-0.0166985
-0.0174564
-0.0171603
-0.0171126
-0.0176355
-0.0184591
-0.0192467
-0.0197746
-0.0199952
-0.0201697
-0.0205622
-0.0210616
-0.0214847
-0.02185
-0.0221582
-0.0223911
-0.0226326
-0.0229491
-0.0233312
-0.0237423
-0.0241178
-0.0244603
-0.0248407
-0.0252787
-0.0257404
-0.026213
-0.026724
-0.0272841
-0.0278313
-0.0283234
-0.0288236
-0.0293811
-0.0299374
-0.0304311
-0.0309168
-0.0314596
-0.032025
-0.0325583
-0.033061
-0.0335697
-0.0341391
-0.0347625
-0.0354311
-0.0361439
-0.0368314
-0.0374094
-0.0379415
-0.0385289
-0.0391666
-0.0398161
-0.0405
-0.0412249
-0.0419607
-0.0426863
-0.0433999
-0.0441195
-0.0448724
-0.0456432
-0.0464066
-0.0471861
-0.0479879
-0.0487772
-0.0495831
-0.0504232
-0.051285
-0.0521451
-0.0530146