/*--------------------------------*- C++ -*----------------------------------*\
| =========                 |                                                 |
| \\      /  F ield         | OpenFOAM: The Open Source CFD Toolbox           |
|  \\    /   O peration     | Version:  3.0.1                                 |
|   \\  /    A nd           | Web:      www.OpenFOAM.org                      |
|    \\/     M anipulation  |                                                 |
\*---------------------------------------------------------------------------*/
FoamFile
{
    version     2.0;
    format      ascii;
    class       surfaceScalarField;
    location    "4.5";
    object      phi;
}
// * * * * * * * * * * * * * * * * * * * * * * * * * * * * * * * * * * * * * //

dimensions      [0 3 -1 0 0 0 0];

internalField   nonuniform List<scalar> 
19000
(
1.23622e-06
1.06979e-06
1.13375e-06
-4.92559e-07
1.09551e-06
4.53754e-08
1.21233e-06
1.32549e-06
1.22015e-06
1.34717e-06
1.04653e-06
-1.07077e-06
1.14586e-06
3.08324e-07
1.12727e-06
4.36654e-07
1.14073e-06
1.45752e-07
1.1633e-06
9.62073e-07
1.11184e-06
2.00495e-07
1.14303e-06
5.55266e-07
1.13991e-06
2.29453e-07
1.14245e-06
5.37655e-07
1.13867e-06
4.99056e-07
1.13123e-06
4.9446e-07
1.139e-06
4.7314e-07
1.12397e-06
9.78566e-08
1.13896e-06
3.13444e-07
-8.94761e-08
1.08038e-06
1.29172e-06
1.00233e-06
1.18516e-06
-3.86004e-07
1.14682e-06
8.37137e-08
1.27411e-06
1.1982e-06
1.27974e-06
1.34154e-06
1.09835e-06
-8.89378e-07
1.20254e-06
2.04135e-07
1.18105e-06
4.58144e-07
1.19387e-06
1.32928e-07
1.23228e-06
9.23666e-07
1.17317e-06
2.59602e-07
1.20797e-06
5.20462e-07
1.19928e-06
2.3815e-07
1.21092e-06
5.26006e-07
1.19209e-06
5.17888e-07
1.20166e-06
4.84888e-07
1.187e-06
4.87804e-07
1.1937e-06
9.11578e-08
1.18107e-06
3.26069e-07
-7.62786e-08
1.16788e-06
1.34813e-06
9.3699e-07
1.24283e-06
-2.80704e-07
1.20047e-06
1.26074e-07
1.33234e-06
1.06633e-06
1.34183e-06
1.33206e-06
1.15802e-06
-7.05569e-07
1.25744e-06
1.04709e-07
1.24868e-06
4.66906e-07
1.25091e-06
1.30701e-07
1.31013e-06
8.64447e-07
1.24069e-06
3.29047e-07
1.2771e-06
4.84044e-07
1.26222e-06
2.53036e-07
1.28007e-06
5.08156e-07
1.25495e-06
5.43004e-07
1.26326e-06
4.76578e-07
1.25196e-06
4.99108e-07
1.25139e-06
9.17274e-08
1.25321e-06
3.2425e-07
-5.47571e-08
1.23169e-06
1.40513e-06
8.75962e-07
1.30938e-06
-1.84957e-07
1.2568e-06
1.7866e-07
1.38681e-06
9.36316e-07
1.40468e-06
1.31418e-06
1.22946e-06
-5.30351e-07
1.31451e-06
1.96592e-08
1.32798e-06
4.53439e-07
1.31147e-06
1.47209e-07
1.38329e-06
7.92631e-07
1.31205e-06
4.0028e-07
1.33641e-06
4.59689e-07
1.32363e-06
2.65816e-07
1.33866e-06
4.93122e-07
1.32054e-06
5.61128e-07
1.32053e-06
4.76591e-07
1.31561e-06
5.04027e-07
1.30921e-06
9.81241e-08
1.31529e-06
3.18171e-07
-3.17868e-08
1.29232e-06
1.46245e-06
8.21862e-07
1.38482e-06
-1.07319e-07
1.31728e-06
2.46195e-07
1.43672e-06
8.16878e-07
1.46726e-06
1.28364e-06
1.31437e-06
-3.77451e-07
1.37484e-06
-4.08107e-08
1.41019e-06
4.18086e-07
1.37606e-06
1.81339e-07
1.4431e-06
7.25589e-07
1.38575e-06
4.57631e-07
1.39064e-06
4.54796e-07
1.38173e-06
2.74731e-07
1.39197e-06
4.82882e-07
1.38217e-06
5.7092e-07
1.3788e-06
4.79963e-07
1.37714e-06
5.05689e-07
1.36964e-06
1.05619e-07
1.37749e-06
3.10328e-07
-1.02676e-08
1.35597e-06
1.52049e-06
7.77051e-07
1.46626e-06
-5.30913e-08
1.38433e-06
3.28127e-07
1.48478e-06
7.16427e-07
1.52979e-06
1.23862e-06
1.40952e-06
-2.5718e-07
1.43919e-06
-7.0477e-08
1.4856e-06
3.71676e-07
1.4451e-06
2.21835e-07
1.49548e-06
6.75214e-07
1.46068e-06
4.92423e-07
1.45019e-06
4.6529e-07
1.44017e-06
2.84752e-07
1.44628e-06
4.76774e-07
1.44222e-06
5.74978e-07
1.44033e-06
4.81854e-07
1.44199e-06
5.04031e-07
1.43536e-06
1.12246e-07
1.44555e-06
3.00135e-07
9.68178e-09
1.4256e-06
1.58046e-06
7.42804e-07
1.5498e-06
-2.2429e-08
1.46061e-06
4.17322e-07
1.53641e-06
6.4062e-07
1.5937e-06
1.18134e-06
1.50881e-06
-1.72292e-07
1.50776e-06
-6.94286e-08
1.55207e-06
3.27366e-07
1.51822e-06
2.55684e-07
1.55115e-06
6.4228e-07
1.53626e-06
5.07322e-07
1.51907e-06
4.82477e-07
1.50411e-06
2.99711e-07
1.50591e-06
4.74971e-07
1.50528e-06
5.75613e-07
1.50707e-06
4.80062e-07
1.51272e-06
4.98382e-07
1.50751e-06
1.17451e-07
1.52004e-06
2.87605e-07
2.84358e-08
1.50129e-06
1.64412e-06
7.18816e-07
1.63271e-06
-1.10232e-08
1.54717e-06
5.02867e-07
1.59705e-06
5.90737e-07
1.66082e-06
1.11757e-06
1.60689e-06
-1.18358e-07
1.58076e-06
-4.32989e-08
1.61483e-06
2.93294e-07
1.59397e-06
2.76545e-07
1.61536e-06
6.20887e-07
1.61277e-06
5.09915e-07
1.59544e-06
4.99807e-07
1.57578e-06
3.19371e-07
1.57337e-06
4.77384e-07
1.57427e-06
5.74709e-07
1.57976e-06
4.74575e-07
1.58937e-06
4.88766e-07
1.5855e-06
1.21327e-07
1.60001e-06
2.73093e-07
4.62091e-08
1.58224e-06
1.71299e-06
7.03397e-07
1.71441e-06
-1.24427e-08
1.64219e-06
5.75094e-07
1.66944e-06
5.63485e-07
1.73257e-06
1.05444e-06
1.70116e-06
-8.695e-08
1.65879e-06
-9.33443e-10
1.68124e-06
2.70847e-07
1.67163e-06
2.8615e-07
1.68749e-06
6.05028e-07
1.69115e-06
5.06253e-07
1.67659e-06
5.14367e-07
1.65463e-06
3.41331e-07
1.64926e-06
4.82758e-07
1.65063e-06
5.73337e-07
1.6587e-06
4.66508e-07
1.67161e-06
4.75853e-07
1.66861e-06
1.24327e-07
1.68458e-06
2.57122e-07
6.30078e-08
1.66778e-06
1.78793e-06
6.94188e-07
1.796e-06
-2.05085e-08
1.74202e-06
6.29072e-07
1.7531e-06
5.52409e-07
1.80961e-06
9.97929e-07
1.79175e-06
-6.90898e-08
1.74248e-06
4.83372e-08
1.75628e-06
2.57044e-07
1.7524e-06
2.90035e-07
1.76561e-06
5.91812e-07
1.77246e-06
4.99404e-07
1.76142e-06
5.25408e-07
1.73968e-06
3.63066e-07
1.73327e-06
4.89178e-07
1.73506e-06
5.71546e-07
1.74454e-06
4.57029e-07
1.75972e-06
4.60672e-07
1.75683e-06
1.27209e-07
1.7734e-06
2.40559e-07
7.88101e-08
1.7576e-06
1.86903e-06
6.8891e-07
1.87919e-06
-3.06692e-08
1.84345e-06
6.64807e-07
1.84557e-06
5.5029e-07
1.8921e-06
9.51395e-07
1.88062e-06
-5.7605e-08
1.83192e-06
9.70345e-08
1.84108e-06
2.47886e-07
1.83829e-06
2.92824e-07
1.84921e-06
5.80894e-07
1.8578e-06
4.90815e-07
1.85017e-06
5.33041e-07
1.83053e-06
3.82702e-07
1.82492e-06
4.94791e-07
1.82767e-06
5.68796e-07
1.83771e-06
4.46988e-07
1.85397e-06
4.44412e-07
1.8503e-06
1.30878e-07
1.86631e-06
2.2455e-07
9.37112e-08
1.85141e-06
1.95598e-06
6.85768e-07
1.96555e-06
-4.02338e-08
1.94503e-06
6.85327e-07
1.94403e-06
5.5129e-07
1.97991e-06
9.15513e-07
1.97032e-06
-4.8017e-08
1.92666e-06
1.40699e-07
1.93405e-06
2.40496e-07
1.93056e-06
2.96309e-07
1.93883e-06
5.7262e-07
1.94818e-06
4.8147e-07
1.94346e-06
5.37756e-07
1.92699e-06
3.9917e-07
1.9235e-06
4.98286e-07
1.92774e-06
5.64553e-07
1.93769e-06
4.37036e-07
1.95384e-06
4.28263e-07
1.94862e-06
1.36101e-07
1.96294e-06
2.10229e-07
1.07785e-07
1.94887e-06
2.04848e-06
6.83477e-07
2.05614e-06
-4.7895e-08
2.0469e-06
6.94565e-07
2.04628e-06
5.51913e-07
2.0728e-06
8.8899e-07
2.06298e-06
-3.81939e-08
2.02598e-06
1.77702e-07
2.03294e-06
2.33532e-07
2.02912e-06
3.00127e-07
2.03479e-06
5.66952e-07
2.04413e-06
4.7213e-07
2.04167e-06
5.40221e-07
2.02868e-06
4.1216e-07
2.02786e-06
4.99107e-07
2.03377e-06
5.58642e-07
2.0431e-06
4.27701e-07
2.05815e-06
4.13208e-07
2.05102e-06
1.43237e-07
2.06286e-06
1.98386e-07
1.20988e-07
2.04966e-06
2.14634e-06
6.81134e-07
2.15156e-06
-5.31156e-08
2.15006e-06
6.96073e-07
2.15119e-06
5.50783e-07
2.17065e-06
8.69532e-07
2.15992e-06
-2.74707e-08
2.12939e-06
2.08238e-07
2.13625e-06
2.26672e-07
2.13311e-06
3.03261e-07
2.13662e-06
5.63446e-07
2.14555e-06
4.63195e-07
2.14468e-06
5.41096e-07
2.13491e-06
4.21927e-07
2.13666e-06
4.97355e-07
2.14402e-06
5.51285e-07
2.15243e-06
4.1929e-07
2.16577e-06
3.99869e-07
2.15685e-06
1.52155e-07
2.16589e-06
1.89346e-07
1.33185e-07
2.1537e-06
2.2495e-06
6.78119e-07
2.25213e-06
-5.57392e-08
2.25567e-06
6.92533e-07
2.25858e-06
5.47871e-07
2.2734e-06
8.54716e-07
2.26181e-06
-1.58848e-08
2.23685e-06
2.33198e-07
2.24343e-06
2.20092e-07
2.24165e-06
3.05036e-07
2.24348e-06
5.6162e-07
2.25196e-06
4.54711e-07
2.25217e-06
5.40888e-07
2.24507e-06
4.29034e-07
2.24893e-06
4.93491e-07
2.25731e-06
5.4291e-07
2.26477e-06
4.11821e-07
2.2762e-06
3.88441e-07
2.26598e-06
1.6238e-07
2.27233e-06
1.82992e-07
1.44265e-07
2.26125e-06
2.35794e-06
6.74054e-07
2.35807e-06
-5.58673e-08
2.36483e-06
6.85769e-07
2.36894e-06
5.43759e-07
2.38112e-06
8.42536e-07
2.36898e-06
-3.74212e-09
2.34875e-06
2.53434e-07
2.35457e-06
2.14266e-07
2.35428e-06
3.05331e-07
2.35476e-06
5.61135e-07
2.36293e-06
4.46546e-07
2.36391e-06
5.39901e-07
2.3588e-06
4.34149e-07
2.36427e-06
4.88017e-07
2.37322e-06
5.3396e-07
2.37996e-06
4.05079e-07
2.38963e-06
3.78772e-07
2.37865e-06
1.73358e-07
2.38274e-06
1.78903e-07
1.54188e-07
2.37282e-06
2.47167e-06
6.68784e-07
2.46963e-06
-5.38295e-08
2.47844e-06
6.76961e-07
2.48299e-06
5.39208e-07
2.49402e-06
8.31508e-07
2.48167e-06
8.60583e-09
2.46555e-06
2.69553e-07
2.46995e-06
2.09864e-07
2.47091e-06
3.04366e-07
2.47031e-06
5.61736e-07
2.47829e-06
4.38567e-07
2.47994e-06
5.38257e-07
2.47616e-06
4.37923e-07
2.48286e-06
4.81321e-07
2.49199e-06
5.24826e-07
2.49831e-06
3.98758e-07
2.50658e-06
3.70501e-07
2.49529e-06
1.84649e-07
2.49765e-06
1.76548e-07
1.62895e-07
2.48894e-06
2.59077e-06
6.62307e-07
2.58702e-06
-5.00794e-08
2.59713e-06
6.6685e-07
2.60137e-06
5.34973e-07
2.61237e-06
8.20505e-07
2.60006e-06
2.09112e-08
2.58753e-06
2.82086e-07
2.58984e-06
2.07558e-07
2.59175e-06
3.02452e-07
2.59032e-06
5.63166e-07
2.59819e-06
4.30703e-07
2.60051e-06
5.35933e-07
2.59748e-06
4.4095e-07
2.60516e-06
4.73647e-07
2.61414e-06
5.15841e-07
2.62026e-06
3.92639e-07
2.62764e-06
3.63121e-07
2.61627e-06
1.96025e-07
2.61741e-06
1.75399e-07
1.70251e-07
2.61006e-06
2.71545e-06
6.54689e-07
2.71039e-06
-4.50271e-08
2.72138e-06
6.55861e-07
2.72462e-06
5.31734e-07
2.73653e-06
8.08599e-07
2.72432e-06
3.31179e-08
2.71475e-06
2.9166e-07
2.71453e-06
2.07776e-07
2.71714e-06
2.99839e-07
2.71514e-06
5.65168e-07
2.7229e-06
4.2294e-07
2.72604e-06
5.32794e-07
2.72322e-06
4.43774e-07
2.73174e-06
4.65127e-07
2.74031e-06
5.07273e-07
2.74627e-06
3.86678e-07
2.75334e-06
3.56054e-07
2.74199e-06
2.07371e-07
2.7423e-06
1.75093e-07
1.76038e-07
2.73651e-06
2.84597e-06
6.4599e-07
2.83984e-06
-3.89034e-08
2.85157e-06
6.44137e-07
2.85329e-06
5.30008e-07
2.86682e-06
7.95072e-07
2.85458e-06
4.53593e-08
2.84726e-06
2.98981e-07
2.84444e-06
2.10593e-07
2.8476e-06
2.96674e-07
2.84524e-06
5.67537e-07
2.85284e-06
4.15335e-07
2.85702e-06
5.28614e-07
2.85392e-06
4.46874e-07
2.86319e-06
4.55858e-07
2.87124e-06
4.99223e-07
2.87684e-06
3.81075e-07
2.88417e-06
3.48732e-07
2.873e-06
2.18539e-07
2.87254e-06
1.75553e-07
1.79993e-07
2.86858e-06
2.98265e-06
6.36233e-07
2.97548e-06
-3.17279e-08
2.98803e-06
6.31588e-07
2.98794e-06
5.30098e-07
3.00351e-06
7.79497e-07
2.99098e-06
5.78869e-08
2.98529e-06
3.04678e-07
2.98009e-06
2.15788e-07
2.98374e-06
2.93025e-07
2.98117e-06
5.70108e-07
2.98845e-06
4.0805e-07
2.99396e-06
5.23112e-07
2.99023e-06
4.506e-07
3.00012e-06
4.45966e-07
3.00777e-06
4.91577e-07
3.01265e-06
3.76195e-07
3.02065e-06
3.40731e-07
3.00995e-06
2.2924e-07
3.00851e-06
1.76995e-07
1.81948e-07
3.00655e-06
3.12584e-06
6.25399e-07
3.11748e-06
-2.33645e-08
3.1311e-06
6.17962e-07
3.12911e-06
5.32087e-07
3.14686e-06
7.61754e-07
3.13377e-06
7.09782e-08
3.12926e-06
3.09186e-07
3.12206e-06
2.22985e-07
3.12615e-06
2.88931e-07
3.12355e-06
5.72713e-07
3.13024e-06
4.0136e-07
3.13733e-06
5.16023e-07
3.1328e-06
4.55127e-07
3.14312e-06
4.35646e-07
3.15067e-06
4.84027e-07
3.15441e-06
3.72455e-07
3.16327e-06
3.31871e-07
3.15348e-06
2.39036e-07
3.15068e-06
1.7979e-07
1.81975e-07
3.15065e-06
3.27586e-06
6.13445e-07
3.26611e-06
-1.36076e-08
3.28112e-06
6.02955e-07
3.2773e-06
5.35899e-07
3.2971e-06
7.41955e-07
3.28321e-06
8.48649e-08
3.27966e-06
3.12745e-07
3.27088e-06
2.31755e-07
3.27535e-06
2.84462e-07
3.27294e-06
5.75122e-07
3.27869e-06
3.95617e-07
3.28755e-06
5.07165e-07
3.28224e-06
4.60437e-07
3.29271e-06
4.25173e-07
3.30058e-06
4.76155e-07
3.30289e-06
3.70145e-07
3.31242e-06
3.22343e-07
3.30416e-06
2.47298e-07
3.29965e-06
1.84293e-07
1.80512e-07
3.30112e-06
3.43307e-06
6.0031e-07
3.42171e-06
-2.25298e-09
3.43837e-06
5.86293e-07
3.43289e-06
5.41381e-07
3.45452e-06
7.20331e-07
3.4397e-06
9.9683e-08
3.43694e-06
3.15503e-07
3.42703e-06
2.41663e-07
3.43174e-06
2.79757e-07
3.42981e-06
5.77046e-07
3.43426e-06
3.91172e-07
3.44494e-06
4.96485e-07
3.43904e-06
4.66333e-07
3.44928e-06
4.14932e-07
3.45797e-06
4.67471e-07
3.45872e-06
3.69389e-07
3.46843e-06
3.12636e-07
3.46234e-06
2.53386e-07
3.45608e-06
1.90558e-07
1.78412e-07
3.45818e-06
3.59778e-06
5.85936e-07
3.58467e-06
1.08607e-08
3.60317e-06
5.67791e-07
3.5962e-06
5.4835e-07
3.61939e-06
6.97149e-07
3.60362e-06
1.15445e-07
3.60152e-06
3.17604e-07
3.59091e-06
2.52272e-07
3.59564e-06
2.7503e-07
3.59452e-06
5.7816e-07
3.59738e-06
3.88319e-07
3.60979e-06
4.84068e-07
3.60365e-06
4.72474e-07
3.61319e-06
4.05393e-07
3.62311e-06
4.57549e-07
3.62248e-06
3.70027e-07
3.63161e-06
3.03499e-07
3.62821e-06
2.56793e-07
3.62058e-06
1.98185e-07
1.76788e-07
3.6222e-06
3.77037e-06
5.70274e-07
3.75539e-06
2.58354e-08
3.77582e-06
5.47362e-07
3.76754e-06
5.56628e-07
3.79202e-06
6.72678e-07
3.77543e-06
1.32033e-07
3.77378e-06
3.19252e-07
3.7629e-06
2.63149e-07
3.76738e-06
2.7055e-07
3.76738e-06
5.78157e-07
3.76847e-06
3.87235e-07
3.7824e-06
4.70142e-07
3.77645e-06
4.78417e-07
3.78478e-06
3.97065e-07
3.79622e-06
4.4611e-07
3.7946e-06
3.71646e-07
3.80236e-06
2.95739e-07
3.80181e-06
2.57339e-07
3.79368e-06
2.06323e-07
1.76715e-07
3.79375e-06
3.95117e-06
5.5329e-07
3.9343e-06
4.27121e-08
3.95666e-06
5.25002e-07
3.94725e-06
5.66034e-07
3.97273e-06
6.47194e-07
3.95556e-06
1.4921e-07
3.95408e-06
3.20725e-07
3.94337e-06
2.73864e-07
3.94731e-06
2.66606e-07
3.94869e-06
5.76782e-07
3.94795e-06
3.87972e-07
3.96305e-06
4.55045e-07
3.95781e-06
4.83652e-07
3.96443e-06
3.90454e-07
3.97748e-06
4.33052e-07
3.97547e-06
3.73657e-07
3.98115e-06
2.90062e-07
3.98324e-06
2.55255e-07
3.97566e-06
2.13895e-07
1.78825e-07
3.97355e-06
4.14057e-06
5.34968e-07
4.12181e-06
6.14766e-08
4.14603e-06
5.00777e-07
4.13571e-06
5.7636e-07
4.16189e-06
6.2101e-07
4.14446e-06
1.66636e-07
4.14283e-06
3.22359e-07
4.13269e-06
2.84e-07
4.13583e-06
2.63466e-07
4.13874e-06
5.73871e-07
4.13626e-06
3.90457e-07
4.15213e-06
4.39178e-07
4.14809e-06
4.87692e-07
4.15259e-06
3.85947e-07
4.16717e-06
4.18475e-07
4.16541e-06
3.75417e-07
4.16856e-06
2.86915e-07
4.17261e-06
2.51203e-07
4.16672e-06
2.1978e-07
1.83125e-07
4.16242e-06
4.33896e-06
5.15313e-07
4.31837e-06
8.20659e-08
4.34432e-06
4.7482e-07
4.33333e-06
5.87349e-07
4.35985e-06
5.94495e-07
4.3426e-06
1.83883e-07
4.34043e-06
3.24531e-07
4.33123e-06
2.932e-07
4.3334e-06
2.61299e-07
4.33786e-06
5.69408e-07
4.33384e-06
3.94481e-07
4.35002e-06
4.22996e-07
4.3476e-06
4.90107e-07
4.34982e-06
3.83734e-07
4.36555e-06
4.02741e-07
4.36469e-06
3.76281e-07
4.36523e-06
2.86373e-07
4.37025e-06
2.46181e-07
4.36688e-06
2.23151e-07
1.88895e-07
4.36111e-06
4.54674e-06
4.94352e-07
4.52443e-06
1.04372e-07
4.55192e-06
4.47332e-07
4.5406e-06
5.9867e-07
4.56701e-06
5.68078e-07
4.55043e-06
2.00467e-07
4.54734e-06
3.2762e-07
4.53937e-06
3.01171e-07
4.54049e-06
2.60176e-07
4.5464e-06
5.635e-07
4.54115e-06
3.99735e-07
4.55718e-06
4.06965e-07
4.55674e-06
4.90547e-07
4.55663e-06
3.83837e-07
4.57295e-06
3.86426e-07
4.57363e-06
3.75605e-07
4.57183e-06
2.88169e-07
4.57674e-06
2.41266e-07
4.57615e-06
2.23746e-07
1.94924e-07
4.57012e-06
4.76434e-06
4.72128e-07
4.74047e-06
1.28244e-07
4.76921e-06
4.18591e-07
4.75798e-06
6.09902e-07
4.7838e-06
5.42257e-07
4.7684e-06
2.15864e-07
4.76405e-06
3.31971e-07
4.75746e-06
3.07762e-07
4.75762e-06
2.60012e-07
4.76476e-06
5.56368e-07
4.75862e-06
4.0587e-07
4.77408e-06
3.91509e-07
4.77588e-06
4.88748e-07
4.77358e-06
3.86129e-07
4.78973e-06
3.70283e-07
4.79259e-06
3.72746e-07
4.78895e-06
2.91807e-07
4.79277e-06
2.37448e-07
4.79468e-06
2.21829e-07
1.99917e-07
4.78969e-06
4.99222e-06
4.48708e-07
4.96698e-06
1.53481e-07
4.99661e-06
3.88964e-07
4.98599e-06
6.20521e-07
5.01064e-06
5.17602e-07
4.99698e-06
2.29523e-07
4.99109e-06
3.3786e-07
4.98585e-06
3.13011e-07
4.98532e-06
2.60541e-07
4.9934e-06
5.48288e-07
4.98669e-06
4.12573e-07
5.00125e-06
3.76957e-07
5.00541e-06
4.84588e-07
5.00121e-06
3.9033e-07
5.01643e-06
3.55058e-07
5.02183e-06
3.67349e-07
5.01708e-06
2.96558e-07
5.01917e-06
2.35352e-07
5.02277e-06
2.18229e-07
2.02836e-07
5.01985e-06
5.23084e-06
4.24183e-07
5.20449e-06
1.79828e-07
5.23453e-06
3.58923e-07
5.22516e-06
6.29897e-07
5.24801e-06
4.94753e-07
5.23663e-06
2.40898e-07
5.22904e-06
3.45452e-07
5.2249e-06
3.17155e-07
5.22409e-06
2.61352e-07
5.23284e-06
5.39534e-07
5.22582e-06
4.19589e-07
5.23919e-06
3.63591e-07
5.24577e-06
4.78003e-07
5.24012e-06
3.95986e-07
5.25362e-06
3.4156e-07
5.26171e-06
3.59253e-07
5.25664e-06
3.0163e-07
5.25675e-06
2.35243e-07
5.26106e-06
2.13918e-07
2.0333e-07
5.26057e-06
5.4807e-06
3.98675e-07
5.45356e-06
2.06968e-07
5.48343e-06
3.29051e-07
5.47605e-06
6.37274e-07
5.49639e-06
4.74413e-07
5.48781e-06
2.49479e-07
5.47858e-06
3.5468e-07
5.47506e-06
3.20682e-07
5.47439e-06
2.62017e-07
5.48367e-06
5.3026e-07
5.47651e-06
4.26745e-07
5.4884e-06
3.51699e-07
5.49747e-06
4.68932e-07
5.49092e-06
4.02542e-07
5.50199e-06
3.30486e-07
5.51264e-06
3.486e-07
5.50808e-06
3.06193e-07
5.50621e-06
2.3711e-07
5.51032e-06
2.09817e-07
2.01677e-07
5.51197e-06
5.7423e-06
3.72338e-07
5.71475e-06
2.34513e-07
5.74374e-06
3.00059e-07
5.73925e-06
6.41771e-07
5.75633e-06
4.5733e-07
5.75097e-06
2.54837e-07
5.74044e-06
3.65211e-07
5.73686e-06
3.24263e-07
5.73669e-06
2.62186e-07
5.74648e-06
5.20465e-07
5.73929e-06
4.33944e-07
5.74944e-06
3.41542e-07
5.76096e-06
4.57414e-07
5.75419e-06
4.09311e-07
5.76224e-06
3.22439e-07
5.77508e-06
3.35761e-07
5.7719e-06
3.09373e-07
5.76813e-06
2.4088e-07
5.77146e-06
2.06482e-07
1.98576e-07
5.77456e-06
6.01617e-06
3.4536e-07
5.98868e-06
2.62005e-07
6.01594e-06
2.72798e-07
6.01536e-06
6.42355e-07
6.02839e-06
4.44293e-07
6.02657e-06
2.56664e-07
6.0153e-06
3.76477e-07
6.01093e-06
3.28634e-07
6.01145e-06
2.61659e-07
6.02189e-06
5.10028e-07
6.01474e-06
4.41094e-07
6.0229e-06
3.33383e-07
6.03671e-06
4.43608e-07
6.03051e-06
4.15507e-07
6.03511e-06
3.17841e-07
6.04947e-06
3.21395e-07
6.04849e-06
3.10359e-07
6.04314e-06
2.4623e-07
6.04528e-06
2.04343e-07
1.94698e-07
6.04916e-06
6.30288e-06
3.17969e-07
6.27597e-06
2.88912e-07
6.30051e-06
2.48259e-07
6.305e-06
6.37868e-07
6.31325e-06
4.36042e-07
6.31486e-06
2.55054e-07
6.30382e-06
3.87521e-07
6.298e-06
3.34453e-07
6.29917e-06
2.60483e-07
6.31047e-06
4.98728e-07
6.30352e-06
4.48051e-07
6.30941e-06
3.27489e-07
6.32521e-06
4.27811e-07
6.32037e-06
4.20347e-07
6.3215e-06
3.16706e-07
6.33626e-06
3.06632e-07
6.33826e-06
3.08359e-07
6.33194e-06
2.52552e-07
6.33238e-06
2.03904e-07
1.9042e-07
6.33666e-06
6.60301e-06
2.90429e-07
6.57729e-06
3.14632e-07
6.59798e-06
2.27564e-07
6.60882e-06
6.27035e-07
6.61172e-06
4.33143e-07
6.61613e-06
2.50642e-07
6.60657e-06
3.97083e-07
6.59886e-06
3.42156e-07
6.60039e-06
2.5896e-07
6.61277e-06
4.86343e-07
6.60625e-06
4.54576e-07
6.60971e-06
3.2403e-07
6.62693e-06
4.10586e-07
6.62426e-06
4.23012e-07
6.62226e-06
3.18708e-07
6.63605e-06
2.92845e-07
6.64153e-06
3.02881e-07
6.63523e-06
2.58849e-07
6.63356e-06
2.05575e-07
1.86187e-07
6.63779e-06
6.91718e-06
2.63038e-07
6.8933e-06
3.38515e-07
6.90933e-06
2.11537e-07
6.92733e-06
6.0903e-07
6.92499e-06
4.35485e-07
6.93087e-06
2.44765e-07
6.92403e-06
4.03918e-07
6.91434e-06
3.51852e-07
6.91571e-06
2.57589e-07
6.92931e-06
4.72737e-07
6.92356e-06
4.60328e-07
6.92453e-06
3.23056e-07
6.94247e-06
3.92651e-07
6.94261e-06
4.22871e-07
6.93815e-06
3.23172e-07
6.94975e-06
2.81241e-07
6.95855e-06
2.94086e-07
6.9535e-06
2.63899e-07
6.94981e-06
2.09259e-07
1.82756e-07
6.95324e-06
7.24605e-06
2.36119e-07
7.22469e-06
3.5988e-07
7.23561e-06
2.00622e-07
7.2605e-06
5.84135e-07
7.25417e-06
4.41812e-07
7.25978e-06
2.39161e-07
7.25663e-06
4.07067e-07
7.24525e-06
3.63232e-07
7.24579e-06
2.5705e-07
7.26062e-06
4.57902e-07
7.25605e-06
4.64902e-07
7.25461e-06
3.24489e-07
7.27254e-06
3.7473e-07
7.27583e-06
4.19575e-07
7.26982e-06
3.29185e-07
7.27842e-06
2.72642e-07
7.2897e-06
2.82801e-07
7.2871e-06
2.66501e-07
7.28197e-06
2.14388e-07
1.80911e-07
7.28382e-06
7.59033e-06
2.10015e-07
7.57216e-06
3.78051e-07
7.5778e-06
1.94975e-07
7.60837e-06
5.53568e-07
7.60008e-06
4.50108e-07
7.6037e-06
2.35542e-07
7.60473e-06
4.06033e-07
7.5924e-06
3.75559e-07
7.59134e-06
2.58114e-07
7.60723e-06
4.42015e-07
7.6043e-06
4.67828e-07
7.60067e-06
3.28119e-07
7.61789e-06
3.57505e-07
7.62435e-06
4.13115e-07
7.61792e-06
3.35623e-07
7.62314e-06
2.6742e-07
7.63573e-06
2.70213e-07
7.63624e-06
2.65987e-07
7.63074e-06
2.19891e-07
1.81079e-07
7.63057e-06
7.95075e-06
1.85077e-07
7.93641e-06
3.92391e-07
7.9369e-06
1.94485e-07
7.97153e-06
5.18934e-07
7.96346e-06
4.5818e-07
7.96371e-06
2.35292e-07
7.96893e-06
4.00815e-07
7.95668e-06
3.87808e-07
7.95318e-06
2.61618e-07
7.96966e-06
4.2553e-07
7.96887e-06
4.68621e-07
7.96346e-06
3.33532e-07
7.97931e-06
3.4165e-07
7.9887e-06
4.03721e-07
7.98298e-06
3.4135e-07
7.98495e-06
2.65446e-07
7.99748e-06
2.57687e-07
8.00127e-06
2.62193e-07
7.99654e-06
2.2462e-07
1.83075e-07
7.99454e-06
8.32811e-06
1.6165e-07
8.31818e-06
4.02322e-07
8.31386e-06
1.98807e-07
8.35078e-06
4.82011e-07
8.34525e-06
4.63706e-07
8.34168e-06
2.38866e-07
8.34991e-06
3.92581e-07
8.33831e-06
3.99409e-07
8.33194e-06
2.67994e-07
8.34852e-06
4.08947e-07
8.35031e-06
4.66827e-07
8.34382e-06
3.40028e-07
8.35763e-06
3.27833e-07
8.36952e-06
3.9183e-07
8.36552e-06
3.45354e-07
8.3648e-06
2.66167e-07
8.37607e-06
2.46415e-07
8.3828e-06
2.55462e-07
8.37967e-06
2.27756e-07
1.86135e-07
8.37661e-06
8.72324e-06
1.4007e-07
8.71822e-06
4.07344e-07
8.70956e-06
2.07464e-07
8.7471e-06
4.44472e-07
8.7448e-06
4.66006e-07
8.7347e-06
2.48968e-07
8.74564e-06
3.81641e-07
8.73744e-06
4.07606e-07
8.7287e-06
2.76737e-07
8.7447e-06
3.92946e-07
8.7493e-06
4.62222e-07
8.7425e-06
3.4683e-07
8.75382e-06
3.16517e-07
8.7677e-06
3.77954e-07
8.7661e-06
3.46951e-07
8.76352e-06
2.68747e-07
8.77269e-06
2.37247e-07
8.78167e-06
2.46477e-07
8.78067e-06
2.28759e-07
1.89455e-07
8.77735e-06
9.13703e-06
1.20655e-07
9.13739e-06
4.06989e-07
9.12483e-06
2.20025e-07
9.16113e-06
4.0817e-07
9.16285e-06
4.64283e-07
9.14826e-06
2.63557e-07
9.16023e-06
3.69675e-07
9.1559e-06
4.11934e-07
9.14501e-06
2.87625e-07
9.15932e-06
3.78644e-07
9.16673e-06
4.54809e-07
9.16036e-06
3.53199e-07
9.16907e-06
3.07801e-07
9.18421e-06
3.62821e-07
9.18537e-06
3.45788e-07
9.18198e-06
2.72134e-07
9.18849e-06
2.3074e-07
9.19879e-06
2.36178e-07
9.20024e-06
2.27311e-07
1.92446e-07
9.19725e-06
9.57043e-06
1.03681e-07
9.57644e-06
4.00982e-07
9.56063e-06
2.35833e-07
9.59442e-06
3.74378e-07
9.60147e-06
4.57234e-07
9.58329e-06
2.81745e-07
9.59384e-06
3.59119e-07
9.59379e-06
4.11982e-07
9.58203e-06
2.99392e-07
9.59372e-06
3.66948e-07
9.60357e-06
4.44959e-07
9.59832e-06
3.58456e-07
9.60458e-06
3.01541e-07
9.6202e-06
3.472e-07
9.62411e-06
3.41874e-07
9.62093e-06
2.75318e-07
9.62473e-06
2.26939e-07
9.63518e-06
2.25724e-07
9.63919e-06
2.23298e-07
1.94604e-07
9.63704e-06
1.00245e-05
8.93551e-08
1.0036e-05
3.89398e-07
1.0018e-05
2.53864e-07
1.00479e-05
3.44517e-07
1.00607e-05
4.4444e-07
1.00407e-05
3.017e-07
1.00481e-05
3.51767e-07
1.00517e-05
4.08336e-07
1.00406e-05
3.1046e-07
1.00494e-05
3.58155e-07
1.00609e-05
4.33535e-07
1.00573e-05
3.62029e-07
1.00614e-05
2.97385e-07
1.00768e-05
3.31833e-07
1.00833e-05
3.35418e-07
1.0081e-05
2.77597e-07
1.00826e-05
2.25326e-07
1.00921e-05
2.16242e-07
1.00984e-05
2.16989e-07
1.95417e-07
1.00976e-05
1.05002e-05
7.77983e-08
1.05169e-05
3.72648e-07
1.0498e-05
2.72817e-07
1.05227e-05
3.19763e-07
1.0541e-05
4.26149e-07
1.05214e-05
3.21292e-07
1.05245e-05
3.48706e-07
1.05306e-05
4.02193e-07
1.05215e-05
3.19586e-07
1.05278e-05
3.51897e-07
1.05399e-05
4.21432e-07
1.05382e-05
3.63728e-07
1.05408e-05
2.94797e-07
1.05553e-05
3.17324e-07
1.05638e-05
3.26852e-07
1.0563e-05
2.78472e-07
1.05632e-05
2.25135e-07
1.05709e-05
2.08478e-07
1.05787e-05
2.09178e-07
1.94344e-07
1.05798e-05
1.09988e-05
6.90101e-08
1.102e-05
3.515e-07
1.10016e-05
2.91175e-07
1.10204e-05
3.00987e-07
1.10432e-05
4.0336e-07
1.10261e-05
3.3831e-07
1.10247e-05
3.50149e-07
1.10318e-05
3.95108e-07
1.10253e-05
3.26106e-07
1.10298e-05
3.47355e-07
1.10419e-05
4.09308e-07
1.1042e-05
3.63632e-07
1.10435e-05
2.933e-07
1.10568e-05
3.04026e-07
1.1067e-05
3.16667e-07
1.10678e-05
2.77707e-07
1.10673e-05
2.25605e-07
1.10731e-05
2.02663e-07
1.10814e-05
2.00855e-07
1.91188e-07
1.10846e-05
1.15215e-05
6.28507e-08
1.1546e-05
3.27016e-07
1.15299e-05
3.07327e-07
1.15421e-05
2.88714e-07
1.15681e-05
3.77384e-07
1.15554e-05
3.51003e-07
1.155e-05
3.5555e-07
1.15564e-05
3.88671e-07
1.15527e-05
3.29901e-07
1.15565e-05
3.4354e-07
1.15682e-05
3.97564e-07
1.15699e-05
3.61932e-07
1.15707e-05
2.92476e-07
1.15826e-05
2.92147e-07
1.15939e-05
3.05397e-07
1.15964e-05
2.7519e-07
1.15959e-05
2.26125e-07
1.16e-05
1.98578e-07
1.1608e-05
1.92871e-07
1.86259e-07
1.16129e-05
1.20696e-05
5.90371e-08
1.20962e-05
3.00401e-07
1.20838e-05
3.19782e-07
1.20897e-05
2.82794e-07
1.21168e-05
3.50301e-07
1.21097e-05
3.58097e-07
1.21016e-05
3.63651e-07
1.21062e-05
3.84038e-07
1.21047e-05
3.31407e-07
1.21086e-05
3.397e-07
1.21199e-05
3.86209e-07
1.2123e-05
3.58866e-07
1.21235e-05
2.91962e-07
1.21339e-05
2.81795e-07
1.21457e-05
2.93505e-07
1.215e-05
2.70972e-07
1.21499e-05
2.26163e-07
1.21527e-05
1.95821e-07
1.21597e-05
1.85827e-07
1.80153e-07
1.21658e-05
1.26445e-05
5.71554e-08
1.26717e-05
2.73131e-07
1.26642e-05
3.27369e-07
1.26645e-05
2.82438e-07
1.26902e-05
3.2461e-07
1.26893e-05
3.59005e-07
1.26804e-05
3.7255e-07
1.26828e-05
3.81609e-07
1.26827e-05
3.31493e-07
1.26871e-05
3.35344e-07
1.26983e-05
3.75053e-07
1.27025e-05
3.54594e-07
1.2703e-05
2.91471e-07
1.27118e-05
2.73024e-07
1.27239e-05
2.81395e-07
1.27296e-05
2.65225e-07
1.27304e-05
2.2538e-07
1.27324e-05
1.93872e-07
1.27382e-05
1.79969e-07
1.73562e-07
1.27448e-05
1.32474e-05
5.67138e-08
1.32733e-05
2.47214e-07
1.32714e-05
3.2925e-07
1.32676e-05
2.86251e-07
1.32896e-05
3.02602e-07
1.32946e-05
3.5397e-07
1.32872e-05
3.79978e-07
1.32876e-05
3.81174e-07
1.32882e-05
3.30983e-07
1.32932e-05
3.3031e-07
1.33044e-05
3.63895e-07
1.33098e-05
3.49172e-07
1.33105e-05
2.90746e-07
1.33178e-05
2.65744e-07
1.33297e-05
2.6951e-07
1.33367e-05
2.58168e-07
1.33385e-05
2.23555e-07
1.33402e-05
1.92219e-07
1.33449e-05
1.75239e-07
1.67138e-07
1.33514e-05
1.38797e-05
5.71713e-08
1.39038e-05
2.23151e-07
1.39072e-05
3.25865e-07
1.39003e-05
2.93067e-07
1.39165e-05
2.86464e-07
1.39267e-05
3.43737e-07
1.39228e-05
3.83876e-07
1.39221e-05
3.81934e-07
1.39226e-05
3.30437e-07
1.39281e-05
3.24779e-07
1.39395e-05
3.5256e-07
1.3946e-05
3.42641e-07
1.39472e-05
2.8949e-07
1.39532e-05
2.59799e-07
1.39645e-05
2.58245e-07
1.39726e-05
2.50045e-07
1.39755e-05
2.2062e-07
1.39772e-05
1.90485e-07
1.39811e-05
1.71353e-07
1.613e-07
1.3987e-05
1.45428e-05
5.80697e-08
1.45633e-05
2.02613e-07
1.45716e-05
3.17563e-07
1.45642e-05
3.00505e-07
1.45739e-05
2.76766e-07
1.45874e-05
3.30182e-07
1.45881e-05
3.83171e-07
1.45874e-05
3.82684e-07
1.45876e-05
3.30202e-07
1.45933e-05
3.19075e-07
1.46049e-05
3.40971e-07
1.46125e-05
3.35023e-07
1.46145e-05
2.87519e-07
1.46195e-05
2.54831e-07
1.46298e-05
2.47934e-07
1.46386e-05
2.41199e-07
1.46427e-05
2.16515e-07
1.46448e-05
1.88435e-07
1.46481e-05
1.67985e-07
1.56186e-07
1.46533e-05
1.52379e-05
5.90437e-08
1.52551e-05
1.85409e-07
1.52667e-05
3.06008e-07
1.52603e-05
3.06826e-07
1.52646e-05
2.72508e-07
1.52786e-05
3.16205e-07
1.52843e-05
3.77405e-07
1.52849e-05
3.82146e-07
1.52848e-05
3.30311e-07
1.52903e-05
3.13529e-07
1.5302e-05
3.29263e-07
1.53107e-05
3.2635e-07
1.53136e-05
2.84623e-07
1.53179e-05
2.50554e-07
1.53272e-05
2.38647e-07
1.53363e-05
2.32051e-07
1.53415e-05
2.11277e-07
1.53442e-05
1.85794e-07
1.53473e-05
1.64915e-07
1.51699e-07
1.53517e-05
1.59665e-05
5.98711e-08
1.59801e-05
1.71843e-07
1.59937e-05
2.92348e-07
1.59899e-05
3.10643e-07
1.59906e-05
2.71858e-07
1.60026e-05
3.04121e-07
1.6013e-05
3.67089e-07
1.60157e-05
3.79438e-07
1.60157e-05
3.30291e-07
1.60208e-05
3.08456e-07
1.60323e-05
3.17707e-07
1.6042e-05
3.16682e-07
1.6046e-05
2.80575e-07
1.60499e-05
2.46646e-07
1.60582e-05
2.30376e-07
1.60673e-05
2.22933e-07
1.60734e-05
2.05192e-07
1.60769e-05
1.82325e-07
1.60799e-05
1.61874e-07
1.4772e-07
1.60839e-05
1.67301e-05
6.04197e-08
1.67392e-05
1.62692e-07
1.67543e-05
2.77208e-07
1.67542e-05
3.1079e-07
1.6753e-05
2.73093e-07
1.67626e-05
2.94527e-07
1.67756e-05
3.54068e-07
1.6781e-05
3.74013e-07
1.67818e-05
3.29503e-07
1.67863e-05
3.03906e-07
1.67975e-05
3.06572e-07
1.68079e-05
3.06262e-07
1.68132e-05
2.75265e-07
1.68171e-05
2.42713e-07
1.68244e-05
2.23074e-07
1.68333e-05
2.14065e-07
1.684e-05
1.9854e-07
1.68442e-05
1.78063e-07
1.68476e-05
1.5845e-07
1.44098e-07
1.68513e-05
1.75302e-05
6.05671e-08
1.75373e-05
1.55595e-07
1.75521e-05
2.62398e-07
1.75549e-05
3.08058e-07
1.75531e-05
2.74864e-07
1.75603e-05
2.87331e-07
1.75741e-05
3.40202e-07
1.75824e-05
3.65732e-07
1.75844e-05
3.27487e-07
1.75887e-05
2.99608e-07
1.75992e-05
2.96062e-07
1.76101e-05
2.95417e-07
1.76166e-05
2.68769e-07
1.7621e-05
2.38327e-07
1.76275e-05
2.16585e-07
1.7636e-05
2.0555e-07
1.7643e-05
1.91515e-07
1.76478e-05
1.73249e-07
1.76518e-05
1.54471e-07
1.40511e-07
1.76554e-05
1.83686e-05
6.02927e-08
1.83737e-05
1.50497e-07
1.83882e-05
2.47911e-07
1.83936e-05
3.02706e-07
1.83923e-05
2.76168e-07
1.83974e-05
2.822e-07
1.8411e-05
3.26557e-07
1.84216e-05
3.55169e-07
1.84252e-05
3.23894e-07
1.84296e-05
2.95238e-07
1.84394e-05
2.86202e-07
1.84505e-05
2.84361e-07
1.84579e-05
2.61338e-07
1.8463e-05
2.3326e-07
1.8469e-05
2.10523e-07
1.8477e-05
1.9761e-07
1.84844e-05
1.84123e-07
1.84895e-05
1.68079e-07
1.84939e-05
1.50088e-07
1.36545e-07
1.84979e-05
1.92471e-05
5.96036e-08
1.92507e-05
1.46831e-07
1.92644e-05
2.34225e-07
1.92721e-05
2.95058e-07
1.92718e-05
2.76428e-07
1.92756e-05
2.7846e-07
1.92884e-05
3.13729e-07
1.93004e-05
3.43159e-07
1.93058e-05
3.18526e-07
1.93105e-05
2.90502e-07
1.93198e-05
2.76918e-07
1.93309e-05
2.73286e-07
1.93391e-05
2.53121e-07
1.93448e-05
2.27557e-07
1.93508e-05
2.04487e-07
1.93582e-05
1.90256e-07
1.93657e-05
1.76554e-07
1.93714e-05
1.62378e-07
1.9376e-05
1.45553e-07
1.32102e-07
1.93804e-05
2.01675e-05
5.85337e-08
2.01702e-05
1.44139e-07
2.01828e-05
2.21587e-07
2.01923e-05