/*--------------------------------*- C++ -*----------------------------------*\
| =========                 |                                                 |
| \\      /  F ield         | OpenFOAM: The Open Source CFD Toolbox           |
|  \\    /   O peration     | Version:  3.0.1                                 |
|   \\  /    A nd           | Web:      www.OpenFOAM.org                      |
|    \\/     M anipulation  |                                                 |
\*---------------------------------------------------------------------------*/
FoamFile
{
    version     2.0;
    format      ascii;
    class       volVectorField;
    location    "4.5";
    object      U;
}
// * * * * * * * * * * * * * * * * * * * * * * * * * * * * * * * * * * * * * //

dimensions      [0 1 -1 0 0 0 0];

internalField   nonuniform List<vector> 
9600
(
(0.845457 0.0112066 0)
(1.25365 -0.00620446 0)
(0.707318 9.95786e-05 0)
(1.14685 0.0179885 0)
(0.945473 0.0191568 0)
(1.13938 -0.0184494 0)
(0.663762 0.00620397 0)
(1.28115 0.00770796 0)
(0.670411 0.00292794 0)
(1.25523 0.0210696 0)
(0.757404 0.00377153 0)
(1.13135 0.014499 0)
(0.834933 0.00637793 0)
(1.10542 0.0161928 0)
(0.857088 0.016291 0)
(1.08358 0.0174914 0)
(0.861303 0.018537 0)
(1.07821 0.00391037 0)
(0.850366 0.0145528 0)
(1.08602 -0.00526451 0)
(0.848848 0.0105046 0)
(1.24504 -0.00485448 0)
(0.711554 0.000796824 0)
(1.14207 0.0166865 0)
(0.950906 0.0189321 0)
(1.13622 -0.0149785 0)
(0.669527 0.00464232 0)
(1.27304 0.00809714 0)
(0.681155 0.0028354 0)
(1.24494 0.0203292 0)
(0.78668 0.0052669 0)
(1.11735 0.0140389 0)
(0.866401 0.00641958 0)
(1.08382 0.0161628 0)
(0.900667 0.016661 0)
(1.04048 0.0176254 0)
(0.928066 0.018737 0)
(1.00631 0.00381751 0)
(0.946091 0.0154894 0)
(0.978392 -0.00611598 0)
(0.85637 0.00972699 0)
(1.23013 -0.00360782 0)
(0.726638 0.00130301 0)
(1.12639 0.0147195 0)
(0.96157 0.0188754 0)
(1.12781 -0.0121628 0)
(0.687714 0.00250416 0)
(1.2527 0.00847108 0)
(0.716535 0.00256483 0)
(1.21224 0.0193442 0)
(0.844969 0.00697691 0)
(1.08116 0.0128914 0)
(0.91653 0.00678251 0)
(1.04622 0.0157202 0)
(0.951895 0.0175014 0)
(1.00237 0.0172622 0)
(0.969211 0.0191854 0)
(0.980615 0.00397051 0)
(0.971697 0.0146327 0)
(0.977136 -0.00299798 0)
(0.868239 0.00906829 0)
(1.20858 -0.00248177 0)
(0.756544 0.00178989 0)
(1.09736 0.0129045 0)
(0.97533 0.0186827 0)
(1.11333 -0.00940278 0)
(0.723753 0.000836585 0)
(1.21547 0.00848246 0)
(0.778709 0.00263459 0)
(1.15604 0.0179645 0)
(0.911577 0.00869616 0)
(1.03742 0.011877 0)
(0.954076 0.00722151 0)
(1.01336 0.0150931 0)
(0.978185 0.0181973 0)
(0.986424 0.0169929 0)
(0.979304 0.0195631 0)
(0.976655 0.00397586 0)
(0.973317 0.0147066 0)
(0.97795 -0.00179874 0)
(0.884129 0.00849169 0)
(1.18051 -0.00153301 0)
(0.799753 0.00248594 0)
(1.05817 0.0112837 0)
(0.989249 0.0183317 0)
(1.09428 -0.00688499 0)
(0.776644 -0.000343312 0)
(1.16365 0.00802022 0)
(0.851824 0.00321528 0)
(1.09126 0.0163461 0)
(0.962453 0.0101942 0)
(1.00583 0.0114727 0)
(0.969802 0.00748625 0)
(0.991975 0.0146458 0)
(0.983057 0.0186191 0)
(0.980123 0.0170824 0)
(0.978426 0.0196928 0)
(0.975425 0.00429362 0)
(0.972352 0.0145697 0)
(0.977368 -0.000896082 0)
(0.902936 0.00799205 0)
(1.14771 -0.000818759 0)
(0.849679 0.00340573 0)
(1.01757 0.00984458 0)
(0.999956 0.0177895 0)
(1.07448 -0.00477531 0)
(0.836726 -0.00106806 0)
(1.10684 0.00719543 0)
(0.914445 0.00403799 0)
(1.03775 0.0149727 0)
(0.990007 0.0112374 0)
(0.99199 0.011618 0)
(0.973369 0.0077128 0)
(0.978928 0.0144335 0)
(0.978953 0.0188712 0)
(0.976237 0.0172323 0)
(0.9763 0.0197107 0)
(0.975852 0.00463099 0)
(0.973134 0.0141152 0)
(0.979153 7.13045e-05 0)
(0.922812 0.00759351 0)
(1.11357 -0.000363825 0)
(0.897748 0.00445241 0)
(0.985925 0.0086803 0)
(1.00523 0.0170581 0)
(1.05807 -0.00319634 0)
(0.891314 -0.00128007 0)
(1.05653 0.00629502 0)
(0.955097 0.00480188 0)
(1.00516 0.014072 0)
(1.00036 0.0117803 0)
(0.989759 0.0120504 0)
(0.974744 0.00807833 0)
(0.971692 0.0143582 0)
(0.973655 0.0189615 0)
(0.973929 0.0172505 0)
(0.975877 0.0195873 0)
(0.978183 0.0048811 0)
(0.976211 0.0135576 0)
(0.982815 0.00100901 0)
(0.941666 0.00730613 0)
(1.08202 -0.000149822 0)
(0.937249 0.00550962 0)
(0.969445 0.00786854 0)
(1.00539 0.0161914 0)
(1.04705 -0.00214487 0)
(0.93217 -0.00101305 0)
(1.02016 0.00555664 0)
(0.975089 0.00533528 0)
(0.990257 0.0135345 0)
(1.00235 0.0119567 0)
(0.991696 0.0125415 0)
(0.977311 0.00859038 0)
(0.969154 0.0143759 0)
(0.970515 0.0189479 0)
(0.973362 0.0171049 0)
(0.977325 0.0192867 0)
(0.981677 0.00507025 0)
(0.980747 0.0129247 0)
(0.987319 0.00192817 0)
(0.957858 0.0071173 0)
(1.05599 -0.00011449 0)
(0.965407 0.00646259 0)
(0.967373 0.00739591 0)
(1.003 0.0152822 0)
(1.04041 -0.00151838 0)
(0.958057 -0.000407838 0)
(0.999181 0.00505406 0)
(0.982329 0.00561363 0)
(0.984928 0.0131693 0)
(1.0016 0.0119321 0)
(0.993925 0.0129666 0)
(0.98071 0.00918385 0)
(0.970074 0.014496 0)
(0.970405 0.0189023 0)
(0.974699 0.0168428 0)
(0.980204 0.0188311 0)
(0.985789 0.00521785 0)
(0.985839 0.012207 0)
(0.992031 0.00280103 0)
(0.970629 0.0070029 0)
(1.03656 -0.000181887 0)
(0.983029 0.00722162 0)
(0.974188 0.00718181 0)
(1.00107 0.0144287 0)
(1.03572 -0.00117111 0)
(0.972482 0.000381925 0)
(0.990633 0.0047495 0)
(0.984652 0.00572568 0)
(0.983344 0.0128692 0)
(1.00046 0.0118035 0)
(0.995526 0.0132922 0)
(0.984238 0.00980305 0)
(0.97326 0.0146854 0)
(0.973096 0.0188466 0)
(0.978099 0.0165284 0)
(0.984431 0.0182627 0)
(0.99047 0.00533955 0)
(0.991086 0.0114331 0)
(0.996633 0.00361072 0)
(0.980059 0.00693784 0)
(1.02317 -0.00029042 0)
(0.992823 0.00775376 0)
(0.983869 0.0071246 0)
(1.00127 0.0136988 0)
(1.03114 -0.000969499 0)
(0.980188 0.00122035 0)
(0.989802 0.00456454 0)
(0.986555 0.00578184 0)
(0.983379 0.0126123 0)
(0.999781 0.0116142 0)
(0.996798 0.0135268 0)
(0.987734 0.0103936 0)
(0.9779 0.0148738 0)
(0.978017 0.0187774 0)
(0.983404 0.0161888 0)
(0.989929 0.0176292 0)
(0.995666 0.00547293 0)
(0.996297 0.0106633 0)
(1.00091 0.0043867 0)
(0.986724 0.00690125 0)
(1.01444 -0.00040166 0)
(0.99772 0.00807984 0)
(0.992558 0.00713437 0)
(1.00352 0.013121 0)
(1.02617 -0.00082074 0)
(0.984797 0.00200622 0)
(0.992468 0.00442873 0)
(0.989306 0.00584319 0)
(0.984736 0.0124072 0)
(0.999944 0.0113942 0)
(0.998191 0.0136839 0)
(0.991241 0.0109019 0)
(0.98336 0.0150178 0)
(0.984351 0.0186683 0)
(0.989921 0.0158352 0)
(0.996145 0.0169811 0)
(1.00096 0.00566311 0)
(1.00115 0.00996365 0)
(1.00461 0.00510931 0)
(0.991339 0.00687791 0)
(1.00899 -0.000496086 0)
(0.999932 0.00824577 0)
(0.998816 0.00715194 0)
(1.00669 0.0126893 0)
(1.02126 -0.000675523 0)
(0.988171 0.00268797 0)
(0.995947 0.00430353 0)
(0.992541 0.00591701 0)
(0.987197 0.0122591 0)
(1.00097 0.0111696 0)
(0.999882 0.0137731 0)
(0.994698 0.011309 0)
(0.988976 0.0150909 0)
(0.991076 0.0184971 0)
(0.996612 0.0154898 0)
(1.00219 0.0163624 0)
(1.00575 0.00593256 0)
(1.00526 0.00936857 0)
(1.00751 0.00578448 0)
(0.994538 0.0068573 0)
(1.00569 -0.000565628 0)
(1.0008 0.00830001 0)
(1.00268 0.00714857 0)
(1.00968 0.0123765 0)
(1.01702 -0.000515853 0)
(0.990921 0.00325512 0)
(0.999041 0.00417776 0)
(0.995626 0.00598512 0)
(0.990158 0.0121633 0)
(1.00254 0.0109562 0)
(1.00174 0.0138072 0)
(0.997895 0.0116217 0)
(0.994115 0.0150802 0)
(0.997231 0.0182644 0)
(1.00254 0.0151752 0)
(1.0073 0.0158061 0)
(1.00957 0.00626767 0)
(1.0084 0.00889232 0)
(1.00957 0.0064087 0)
(0.996785 0.00683208 0)
(1.00379 -0.000607224 0)
(1.00105 0.00828096 0)
(1.00474 0.00711952 0)
(1.0119 0.0121451 0)
(1.0137 -0.000340566 0)
(0.993201 0.00371775 0)
(1.00148 0.00405322 0)
(0.998199 0.00603034 0)
(0.992949 0.0121105 0)
(1.00421 0.0107533 0)
(1.00348 0.0138103 0)
(1.00059 0.011845 0)
(0.998343 0.0149976 0)
(1.00222 0.0179901 0)
(1.00717 0.0148971 0)
(1.01112 0.0153249 0)
(1.01232 0.00665391 0)
(1.01064 0.00854468 0)
(1.01091 0.00699158 0)
(0.998357 0.00679733 0)
(1.00276 -0.000620599 0)
(1.0011 0.00821514 0)
(1.00562 0.00707081 0)
(1.01329 0.0119618 0)
(1.01123 -0.00015485 0)
(0.995144 0.00409164 0)
(1.00339 0.00393723 0)
(1.00015 0.00604647 0)
(0.995165 0.0120888 0)
(1.00563 0.0105584 0)
(1.00489 0.0137951 0)
(1.00265 0.0119995 0)
(1.0015 0.0148569 0)
(1.00586 0.0176971 0)
(1.01044 0.0146419 0)
(1.0137 0.0149225 0)
(1.01412 0.00709792 0)
(1.01215 0.00832327 0)
(1.01173 0.00752967 0)
(0.999391 0.00675067 0)
(1.00226 -0.000608335 0)
(1.00119 0.00811966 0)
(1.00577 0.00701173 0)
(1.01403 0.0118025 0)
(1.00937 3.50124e-05 0)
(0.996882 0.00439125 0)
(1.00492 0.00384161 0)
(1.0015 0.00603472 0)
(0.996707 0.012094 0)
(1.00666 0.010368 0)
(1.00588 0.0137634 0)
(1.00407 0.0121113 0)
(1.00366 0.0146741 0)
(1.00828 0.0173913 0)
(1.01252 0.0143981 0)
(1.01527 0.0145947 0)
(1.01517 0.00757838 0)
(1.01315 0.0081888 0)
(1.01223 0.00801503 0)
(0.999965 0.00669164 0)
(1.00209 -0.000574794 0)
(1.00139 0.00800469 0)
(1.00549 0.00695294 0)
(1.01432 0.0116499 0)
(1.00802 0.000225927 0)
(0.998437 0.0046257 0)
(1.00613 0.00378038 0)
(1.00229 0.00600148 0)
(0.997634 0.0121204 0)
(1.00729 0.010181 0)
(1.00647 0.0137148 0)
(1.00496 0.0121962 0)
(1.00501 0.0144588 0)
(1.0097 0.0170888 0)
(1.01368 0.0141608 0)
(1.01604 0.0143086 0)
(1.01564 0.00806396 0)
(1.01374 0.00810374 0)
(1.01252 0.00843914 0)
(1.00017 0.00662078 0)
(1.00215 -0.000525172 0)
(1.00168 0.00787751 0)
(1.00501 0.00690303 0)
(1.01426 0.0114911 0)
(1.00713 0.000414576 0)
(0.999726 0.00480526 0)
(1.007 0.00376485 0)
(1.00265 0.00595209 0)
(0.998062 0.0121613 0)
(1.00759 0.00999473 0)
(1.00675 0.0136514 0)
(1.00543 0.0122686 0)
(1.00576 0.0142129 0)
(1.01037 0.0168082 0)
(1.01413 0.013923 0)
(1.01622 0.014039 0)
(1.01566 0.00855144 0)
(1.01401 0.00805133 0)
(1.01265 0.00878207 0)
(1.00014 0.00653887 0)
(1.00232 -0.000463382 0)
(1.002 0.00774199 0)
(1.00448 0.00686995 0)
(1.01394 0.0113138 0)
(1.00665 0.000602549 0)
(1.00067 0.00494166 0)
(1.00755 0.00379865 0)
(1.00274 0.00589139 0)
(0.998133 0.0122106 0)
(1.00763 0.00980795 0)
(1.00683 0.01357 0)
(1.00558 0.0123431 0)
(1.00611 0.0139388 0)
(1.01051 0.0165544 0)
(1.01411 0.0136972 0)
(1.01598 0.0137608 0)
(1.01536 0.00904407 0)
(1.01403 0.00804113 0)
(1.01267 0.00903184 0)
(0.999992 0.00644616 0)
(1.00252 -0.000390168 0)
(1.00227 0.0075975 0)
(1.00402 0.00685987 0)
(1.01348 0.0111083 0)
(1.00647 0.000794699 0)
(1.00127 0.00504533 0)
(1.00781 0.00387803 0)
(1.00272 0.00582115 0)
(0.998012 0.0122675 0)
(1.00749 0.00962602 0)
(1.00681 0.0134521 0)
(1.00555 0.0124364 0)
(1.00624 0.01364 0)
(1.01035 0.0163161 0)
(1.01381 0.0135045 0)
(1.01551 0.0134474 0)
(1.01488 0.00953117 0)
(1.01388 0.00808344 0)
(1.01265 0.00917401 0)
(0.999822 0.00634262 0)
(1.00272 -0.000304868 0)
(1.00247 0.00744231 0)
(1.00369 0.00687368 0)
(1.01297 0.0108722 0)
(1.00644 0.000993383 0)
(1.00161 0.00512598 0)
(1.0079 0.00399562 0)
(1.00268 0.00574083 0)
(0.997848 0.0123291 0)
(1.00727 0.00945794 0)
(1.00678 0.0132877 0)
(1.00543 0.0125584 0)
(1.00629 0.0133196 0)
(1.01007 0.0160819 0)
(1.01343 0.0133498 0)
(1.01497 0.0130963 0)
(1.01435 0.00998876 0)
(1.01363 0.00818344 0)
(1.01262 0.00920099 0)
(0.999675 0.00622814 0)
(1.00289 -0.000206044 0)
(1.00259 0.00727289 0)
(1.0035 0.00691199 0)
(1.01249 0.0106058 0)
(1.00647 0.00120091 0)
(1.00176 0.00518983 0)
(1.00791 0.00414552 0)
(1.00269 0.00565304 0)
(0.997735 0.0123844 0)
(1.00703 0.00931245 0)
(1.00678 0.0130798 0)
(1.00527 0.0127019 0)
(1.00634 0.0129901 0)
(1.00978 0.0158386 0)
(1.01306 0.013251 0)
(1.01446 0.0127127 0)
(1.01385 0.0103899 0)
(1.01335 0.00836027 0)
(1.01262 0.00912064 0)
(0.999564 0.00610205 0)
(1.00302 -9.02884e-05 0)
(1.00265 0.00708394 0)
(1.00344 0.00697416 0)
(1.01207 0.0103119 0)
(1.0065 0.00142149 0)
(1.0018 0.00523838 0)
(1.0079 0.00432036 0)
(1.00274 0.00555905 0)
(0.997708 0.0124345 0)
(1.00681 0.00919347 0)
(1.00683 0.0128215 0)
(1.0051 0.0128648 0)
(1.00642 0.0126627 0)
(1.00955 0.01557 0)
(1.01274 0.0132113 0)
(1.01404 0.0123139 0)
(1.01342 0.0107071 0)
(1.01306 0.00863448 0)
(1.01264 0.00897367 0)
(0.999486 0.00596368 0)
(1.00313 4.36098e-05 0)
(1.00266 0.00687483 0)
(1.00346 0.00705602 0)
(1.0117 0.0099934 0)
(1.0065 0.00165808 0)
(1.00178 0.00527225 0)
(1.00789 0.00451043 0)
(1.00284 0.00546127 0)
(0.997759 0.012471 0)
(1.00662 0.00911617 0)
(1.00694 0.0125077 0)
(1.00494 0.0130436 0)
(1.00654 0.0123501 0)
(1.0094 0.0152608 0)
(1.01246 0.0132272 0)
(1.0137 0.0119256 0)
(1.01309 0.010902 0)
(1.01277 0.00899712 0)
(1.01268 0.00883528 0)
(0.999436 0.0058125 0)
(1.00321 0.000197832 0)
(1.00267 0.0066412 0)
(1.00352 0.00715786 0)
(1.01137 0.0096546 0)
(1.00648 0.00190668 0)
(1.00174 0.00529982 0)
(1.00789 0.00471134 0)
(1.00297 0.00536724 0)
(0.997865 0.0124771 0)
(1.00646 0.0090823 0)
(1.00708 0.0121621 0)
(1.00479 0.0132231 0)
(1.00666 0.0120749 0)
(1.00932 0.0149039 0)
(1.01222 0.0132909 0)
(1.01342 0.0115794 0)
(1.01285 0.0109595 0)
(1.01249 0.00941175 0)
(1.01271 0.00877181 0)
(0.999412 0.00564829 0)
(1.00327 0.000372294 0)
(1.00267 0.00638528 0)
(1.00359 0.00727374 0)
(1.01106 0.00930143 0)
(1.00643 0.00216569 0)
(1.00171 0.0053228 0)
(1.00789 0.00491046 0)
(1.00313 0.00528753 0)
(0.998002 0.012449 0)
(1.00632 0.00908982 0)
(1.00726 0.0117921 0)
(1.00465 0.013386 0)
(1.00676 0.0118534 0)
(1.0093 0.0144932 0)
(1.01199 0.0133794 0)
(1.01318 0.0113159 0)
(1.01268 0.0108961 0)
(1.01222 0.00982235 0)
(1.01269 0.0088333 0)
(0.999413 0.00547079 0)
(1.00329 0.000566763 0)
(1.0027 0.00610756 0)
(1.00366 0.00740352 0)
(1.01078 0.00893478 0)
(1.00636 0.00243156 0)
(1.00168 0.00534421 0)
(1.00789 0.0051015 0)
(1.00332 0.00522154 0)
(0.998153 0.0123901 0)
(1.0062 0.00913858 0)
(1.00746 0.0114008 0)
(1.00454 0.0135174 0)
(1.00683 0.0116856 0)
(1.00935 0.0140203 0)
(1.01177 0.013471 0)
(1.01294 0.0111579 0)
(1.01257 0.010725 0)
(1.01199 0.0101558 0)
(1.01262 0.0090402 0)
(0.999436 0.0052792 0)
(1.00328 0.000784057 0)
(1.00275 0.00580312 0)
(1.00371 0.00754698 0)
(1.01051 0.00855944 0)
(1.00627 0.00270211 0)
(1.00168 0.00537143 0)
(1.00787 0.00527873 0)
(1.00353 0.00517978 0)
(0.998313 0.0123026 0)
(1.00609 0.00922162 0)
(1.00768 0.010996 0)
(1.00446 0.0136078 0)
(1.00685 0.0115843 0)
(1.00944 0.0135027 0)
(1.01158 0.0135351 0)
(1.0127 0.0111068 0)
(1.0125 0.0104879 0)
(1.01183 0.0103651 0)
(1.01249 0.00937652 0)
(0.999476 0.00507452 0)
(1.00324 0.00102015 0)
(1.00281 0.00548104 0)
(1.00375 0.00769263 0)
(1.01025 0.00818276 0)
(1.00616 0.00297123 0)
(1.00168 0.00541253 0)
(1.00784 0.00543091 0)
(1.00377 0.00516294 0)
(0.998478 0.0121919 0)
(1.00598 0.00933053 0)
(1.0079 0.0105861 0)
(1.00441 0.0136499 0)
(1.00681 0.0115571 0)
(1.00956 0.012962 0)
(1.01141 0.0135465 0)
(1.01243 0.0111624 0)
(1.01245 0.0102446 0)
(1.01173 0.0104237 0)
(1.01232 0.00976398 0)
(0.999529 0.00485743 0)
(1.00317 0.00127296 0)
(1.00289 0.00514391 0)
(1.00377 0.00783906 0)
(1.01 0.00781171 0)
(1.00605 0.0032227 0)
(1.0017 0.00547861 0)
(1.0078 0.00555149 0)
(1.00402 0.00516562 0)
(0.998648 0.0120461 0)
(1.00587 0.00946465 0)
(1.00814 0.0101915 0)
(1.0044 0.0136391 0)
(1.00672 0.0115947 0)
(1.00969 0.0124136 0)
(1.01129 0.0134826 0)
(1.01214 0.0113047 0)
(1.0124 0.0100442 0)
(1.01172 0.0103374 0)
(1.01216 0.0100995 0)
(0.999588 0.00462692 0)
(1.00309 0.00154508 0)
(1.00298 0.00479096 0)
(1.00379 0.00798335 0)
(1.00975 0.00745511 0)
(1.00592 0.0034493 0)
(1.00172 0.00557254 0)
(1.00775 0.00563468 0)
(1.00429 0.0051813 0)
(0.998826 0.0118784 0)
(1.00574 0.00961036 0)
(1.00838 0.0098158 0)
(1.00443 0.0135675 0)
(1.00659 0.011698 0)
(1.00982 0.0118829 0)
(1.01122 0.0133301 0)
(1.01183 0.0115038 0)
(1.01232 0.00992063 0)
(1.01176 0.0101428 0)
(1.01204 0.0103039 0)
(0.99965 0.00438511 0)
(1.00299 0.00182965 0)
(1.00308 0.00443216 0)
(1.0038 0.00811688 0)
(1.0095 0.00711754 0)
(1.0058 0.00364684 0)
(1.00173 0.00569825 0)
(1.00768 0.00570001 0)
(1.00456 0.00519711 0)
(0.999016 0.0117069 0)
(1.00561 0.0097559 0)
(1.00863 0.00945707 0)
(1.00452 0.0134248 0)
(1.00641 0.01186 0)
(1.00994 0.0113915 0)
(1.01121 0.0130761 0)
(1.01152 0.0117252 0)
(1.01218 0.00989443 0)
(1.01184 0.00990098 0)
(1.01201 0.0103415 0)
(0.999712 0.00413262 0)
(1.00287 0.0021252 0)
(1.00317 0.00407023 0)
(1.0038 0.00823217 0)
(1.00924 0.00680978 0)
(1.00569 0.00379949 0)
(1.00175 0.00585714 0)
(1.0076 0.00576144 0)
(1.00483 0.00521208 0)
(0.999219 0.0115268 0)
(1.00545 0.00990264 0)
(1.00887 0.00912642 0)
(1.00465 0.0132093 0)
(1.00619 0.0120665 0)
(1.01001 0.0109672 0)
(1.01127 0.0127226 0)
(1.01122 0.0119381 0)
(1.01199 0.00997145 0)
(1.01193 0.00968213 0)
(1.01205 0.0102337 0)
(0.999774 0.00387168 0)
(1.00274 0.00242781 0)
(1.00325 0.00371523 0)
(1.00379 0.00831223 0)
(1.00897 0.00654637 0)
(1.00558 0.00389631 0)
(1.00176 0.00604537 0)
(1.0075 0.00582247 0)
(1.00511 0.00521241 0)
(0.999439 0.0113397 0)
(1.00527 0.0100592 0)
(1.00909 0.00883407 0)
(1.00485 0.0129236 0)
(1.00596 0.0122966 0)
(1.01004 0.0106372 0)
(1.01139 0.0122766 0)
(1.01096 0.0121066 0)
(1.01173 0.0101273 0)
(1.01198 0.00951892 0)
(1.01216 0.0100392 0)
(0.999834 0.00360177 0)
(1.0026 0.00273307 0)
(1.00333 0.00337761 0)
(1.00378 0.00834636 0)
(1.00868 0.00633525 0)
(1.00549 0.00393607 0)
(1.00177 0.00624485 0)
(1.00738 0.00589223 0)
(1.00538 0.00519042 0)
(0.999679 0.0111405 0)
(1.00507 0.0102266 0)
(1.0093 0.00858229 0)
(1.00511 0.0125691 0)
(1.00571 0.0125214 0)
(1.00999 0.010423 0)
(1.01155 0.0117505 0)
(1.01077 0.012199 0)
(1.01143 0.010347 0)
(1.01198 0.00941463 0)
(1.01231 0.00982951 0)
(0.999892 0.00332704 0)
(1.00245 0.00303564 0)
(1.0034 0.00306393 0)
(1.00377 0.00832573 0)
(1.00838 0.00618576 0)
(1.0054 0.00391902 0)
(1.00178 0.00643859 0)
(1.00724 0.00598804 0)
(1.00564 0.00515347 0)
(0.999942 0.0109149 0)
(1.00486 0.0104003 0)
(1.00947 0.00837911 0)
(1.00542 0.0121476 0)
(1.00548 0.0127129 0)
(1.00987 0.0103422 0)
(1.01176 0.0111813 0)
(1.01065 0.012182 0)
(1.01109 0.0106307 0)
(1.01191 0.00936804 0)
(1.01246 0.00963071 0)
(0.999947 0.00304998 0)
(1.00228 0.00332737 0)
(1.00345 0.00279081 0)
(1.00376 0.00822784 0)
(1.00806 0.00611983 0)
(1.00533 0.00385375 0)
(1.0018 0.00661414 0)
(1.00708 0.00612293 0)
(1.00589 0.00510728 0)
(1.00023 0.0106555 0)
(1.00463 0.0105758 0)
(1.0096 0.00824208 0)
(1.0058 0.0116665 0)
(1.00529 0.0128422 0)
(1.00967 0.0103886 0)
(1.01196 0.0106249 0)
(1.01063 0.0120121 0)
(1.01073 0.0109484 0)
(1.01177 0.00940023 0)
(1.0126 0.00941892 0)
(1 0.00277199 0)
(1.0021 0.00360214 0)
(1.00348 0.00257303 0)
(1.00375 0.00803526 0)
(1.00771 0.0061273 0)
(1.00525 0.00376693 0)
(1.00183 0.00675575 0)
(1.0069 0.00629638 0)
(1.00613 0.00506077 0)
(1.00056 0.0103697 0)
(1.0044 0.0107458 0)
(1.00968 0.00817997 0)
(1.00622 0.011141 0)
(1.00515 0.0128817 0)
(1.00938 0.0105379 0)
(1.01214 0.0101452 0)
(1.01073 0.0116844 0)
(1.0104 0.0112327 0)
(1.01153 0.00954912 0)
(1.01271 0.00919953 0)
(1.00005 0.00249771 0)
(1.0019 0.00385241 0)
(1.0035 0.00241367 0)
(1.00375 0.00775298 0)
(1.00736 0.00619717 0)
(1.00517 0.00367055 0)
(1.00187 0.00683087 0)
(1.00669 0.00651603 0)
(1.00634 0.00503202 0)
(1.00091 0.0100491 0)
(1.00418 0.0108921 0)
(1.00969 0.00819224 0)
(1.00667 0.0106039 0)
(1.00508 0.0128177 0)
(1.00903 0.0107555 0)
(1.01226 0.00978826 0)
(1.01092 0.0112356 0)
(1.01014 0.0114059 0)
(1.0112 0.00981267 0)
(1.01275 0.00903896 0)
(1.0001 0.00223075 0)
(1.0017 0.00406988 0)
(1.00348 0.00231889 0)
(1.00375 0.00738177 0)
(1.00699 0.00631599 0)
(1.00508 0.00359592 0)
(1.00194 0.00683213 0)
(1.00647 0.00676381 0)
(1.00652 0.00503519 0)
(1.0013 0.00968974 0)
(1.00397 0.0110012 0)
(1.00963 0.00827885 0)
(1.00713 0.010091 0)
(1.00511 0.0126488 0)
(1.00864 0.0109935 0)
(1.01229 0.00956683 0)
(1.01119 0.0107223 0)
(1.00998 0.0114229 0)
(1.01081 0.0101227 0)
(1.01268 0.00900721 0)
(1.00014 0.0019718 0)
(1.00149 0.00424769 0)
(1.00343 0.00229449 0)
(1.00376 0.006939 0)
(1.00662 0.00644156 0)
(1.00498 0.00356873 0)
(1.00202 0.00676501 0)
(1.00624 0.00701019 0)
(1.00666 0.00508851 0)
(1.00172 0.00930323 0)
(1.0038 0.0110476 0)
(1.0095 0.00842264 0)
(1.00758 0.00962093 0)
(1.00522 0.0123832 0)
(1.00824 0.0112133 0)
(1.01221 0.00947476 0)
(1.01148 0.0102094 0)
(1.00995 0.0112895 0)
(1.01041 0.0103935 0)
(1.01247 0.00911323 0)
(1.00018 0.00172969 0)
(1.00129 0.00437969 0)
(1.00334 0.00232517 0)
(1.00377 0.00645822 0)
(1.00626 0.00654825 0)
(1.00485 0.00359909 0)
(1.00212 0.00661001 0)
(1.00601 0.0072316 0)
(1.00676 0.00520904 0)
(1.00216 0.00891546 0)
(1.00367 0.0110189 0)
(1.00932 0.00860391 0)
(1.008 0.00921103 0)
(1.00543 0.0120311 0)
(1.00786 0.0113791 0)
(1.01203 0.00948299 0)
(1.01177 0.00973296 0)
(1.01005 0.0110269 0)
(1.01006 0.0105725 0)
(1.01215 0.00930439 0)
(1.00022 0.00150192 0)
(1.00108 0.00446208 0)
(1.00321 0.00241353 0)
(1.00379 0.00596543 0)
(1.0059 0.00660909 0)
(1.00469 0.00371308 0)
(1.00223 0.00641165 0)
(1.0058 0.00740567 0)
(1.00681 0.00539563 0)
(1.0026 0.00855837 0)
(1.00359 0.0109146 0)
(1.00908 0.00879381 0)
(1.00837 0.00887764 0)
(1.00571 0.0116216 0)
(1.00752 0.0114751 0)
(1.01174 0.00957698 0)
(1.01201 0.00933099 0)
(1.01025 0.0106637 0)
(1.00978 0.0106542 0)
(1.01175 0.00951225 0)
(1.00025 0.0012932 0)
(1.00088 0.00448972 0)
(1.00305 0.00255109 0)
(1.0038 0.00547575 0)
(1.00557 0.00661143 0)
(1.00451 0.00392704 0)
(1.00235 0.00620655 0)
(1.0056 0.00750848 0)
(1.00681 0.00562657 0)
(1.00303 0.00824314 0)
(1.00355 0.0107377 0)
(1.00882 0.00896592 0)
(1.00868 0.0086205 0)
(1.00606 0.0111736 0)
(1.00725 0.0114757 0)
(1.01138 0.00971876 0)
(1.01218 0.00903342 0)
(1.01054 0.010222 0)
(1.00961 0.0106301 0)
(1.01133 0.00968772 0)
(1.00028 0.00111302 0)
(1.00068 0.00444898 0)
(1.00284 0.00272903 0)
(1.00381 0.00501567 0)
(1.00528 0.00654115 0)
(1.0043 0.00421357 0)
(1.00245 0.0060148 0)
(1.00543 0.00752221 0)
(1.00677 0.00587285 0)
(1.00343 0.00798141 0)
(1.00357 0.0105095 0)
(1.00852 0.00910449 0)
(1.00892 0.00842681 0)
(1.00645 0.0107015 0)
(1.00705 0.0113738 0)
(1.01095 0.00985782 0)
(1.01223 0.00885075 0)
(1.01088 0.00974195 0)
(1.00957 0.0104805 0)
(1.01091 0.00981743 0)
(1.0003 0.000954379 0)
(1.0005 0.00434907 0)
(1.00261 0.00294039 0)
(1.0038 0.00459999 0)
(1.00501 0.00639111 0)
(1.00407 0.00452906 0)
(1.00254 0.00587441 0)
(1.00528 0.00745032 0)
(1.00671 0.00610002 0)
(1.00381 0.00778864 0)
(1.00363 0.0102551 0)
(1.00822 0.00920317 0)
(1.00908 0.00829057 0)
(1.00686 0.0102327 0)
(1.00694 0.0111886 0)
(1.01051 0.00996555 0)
(1.01217 0.00877422 0)
(1.01121 0.00929693 0)
(1.00965 0.010212 0)
(1.01055 0.00989737 0)
(1.00032 0.000825554 0)
(1.00035 0.00418766 0)
(1.00236 0.00316747 0)
(1.00377 0.00424273 0)
(1.00479 0.00615966 0)
(1.00383 0.00484895 0)
(1.00259 0.00580287 0)
(1.00516 0.00732171 0)
(1.00664 0.00628473 0)
(1.00415 0.00766097 0)
(1.00372 0.0099926 0)
(1.00791 0.00925965 0)
(1.00917 0.0081981 0)
(1.00727 0.00977819 0)
(1.00691 0.0109284 0)
(1.01008 0.0100223 0)
(1.012 0.00876729 0)
(1.0115 0.00893302 0)
(1.00985 0.00985168 0)
(1.01027 0.00989294 0)
(1.00033 0.000724889 0)
(1.00021 0.00396745 0)
(1.00209 0.00339737 0)
(1.00371 0.00396857 0)
(1.00461 0.0058401 0)
(1.00361 0.00513665 0)
(1.00261 0.00581703 0)
(1.00506 0.00718141 0)
(1.00656 0.006414 0)
(1.00446 0.0075645 0)
(1.00383 0.00972832 0)
(1.00761 0.00927781 0)
(1.00919 0.00814261 0)
(1.00766 0.00935113 0)
(1.00696 0.0106083 0)
(1.00968 0.0100253 0)
(1.01174 0.00879676 0)
(1.01171 0.00865774 0)
(1.01012 0.00944605 0)
(1.0101 0.00977102 0)
(1.00034 0.000653474 0)
(1.0001 0.00370403 0)
(1.00181 0.00360628 0)
(1.00361 0.00377874 0)
(1.00447 0.00546671 0)
(1.00341 0.00536158 0)
(1.00259 0.00591075 0)
(1.00495 0.00706048 0)
(1.00649 0.00648514 0)
(1.00474 0.00747488 0)
(1.00396 0.009467 0)
(1.00733 0.00926272 0)
(1.00914 0.00811432 0)
(1.00803 0.00896088 0)
(1.00709 0.0102321 0)
(1.00933 0.00995871 0)
(1.01142 0.00883375 0)
(1.01182 0.00846209 0)
(1.01042 0.0090487 0)
(1.01007 0.009541 0)
(1.00034 0.000605244 0)
(1.00003 0.00341328 0)
(1.00155 0.00377951 0)
(1.00348 0.00367683 0)
(1.00437 0.00507729 0)
(1.00325 0.00550132 0)
(1.00255 0.00605466 0)
(1.00484 0.00697511 0)
(1.00641 0.00651192 0)
(1.00499 0.00737833 0)
(1.00411 0.00920617 0)
(1.00706 0.00921572 0)
(1.00902 0.00810475 0)
(1.00834 0.00862458 0)
(1.00727 0.00982996 0)
(1.00906 0.00982135 0)
(1.01107 0.00885736 0)
(1.01183 0.00833574 0)
(1.0107 0.0086926 0)
(1.01015 0.00923523 0)
(1.00034 0.000581866 0)
(0.999976 0.00310902 0)
(1.0013 0.00389661 0)
(1.00331 0.0036582 0)
(1.00428 0.00469609 0)
(1.00315 0.0055379 0)
(1.0025 0.00621862 0)
(1.00471 0.00693827 0)
(1.00633 0.00651568 0)
(1.00523 0.00726867 0)
(1.00428 0.00894262 0)
(1.00683 0.009136 0)
(1.00886 0.0081069 0)
(1.00859 0.00834524 0)
(1.0075 0.00943139 0)
(1.00886 0.00962692 0)
(1.01072 0.00884231 0)
(1.01174 0.00825501 0)
(1.01092 0.00839196 0)
(1.01031 0.0088898 0)
(1.00033 0.000573767 0)
(0.999951 0.00281303 0)
(1.00109 0.00394583 0)
(1.0031 0.00370351 0)
(1.00421 0.00436056 0)
(1.0031 0.00546683 0)
(1.00245 0.0063567 0)
(1.00456 0.00694957 0)
(1.00623 0.00651588 0)
(1.00544 0.00714767 0)
(1.00447 0.00867175 0)
(1.00664 0.0090145 0)
(1.00866 0.00810514 0)
(1.00878 0.00811136 0)
(1.00774 0.0090374 0)
(1.00873 0.0093905 0)
(1.01038 0.00878181 0)
(1.01159 0.00819086 0)
(1.01107 0.00815452 0)
(1.01051 0.00853973 0)
(1.00032 0.000575695 0)
(0.999949 0.00253707 0)
(1.00091 0.00392622 0)
(1.00288 0.00378784 0)
(1.00413 0.00409869 0)
(1.00311 0.00531631 0)
(1.00243 0.00643762 0)
(1.0044 0.00698567 0)
(1.00612 0.00652777 0)
(1.00563 0.00702069 0)
(1.00467 0.0083901 0)
(1.00648 0.00885108 0)
(1.00843 0.00808815 0)
(1.00889 0.00792797 0)
(1.00799 0.0086567 0)
(1.00867 0.00911767 0)
(1.01008 0.00868839 0)
(1.01138 0.00812376 0)
(1.01114 0.00796873 0)
(1.0107 0.00821614 0)
(1.00031 0.0005852 0)
(0.999962 0.0022944 0)
(1.00077 0.00383845 0)
(1.00264 0.00388836 0)
(1.00403 0.00392989 0)
(1.00316 0.00511556 0)
(1.00244 0.00644475 0)
(1.00424 0.00701275 0)
(1.00598 0.00655262 0)
(1.00579 0.0069025 0)
(1.00488 0.00810552 0)
(1.00637 0.00865859 0)
(1.00821 0.00804453 0)
(1.00894 0.00778302 0)
(1.00822 0.00830482 0)
(1.00868 0.00880308 0)
(1.00982 0.00855425 0)
(1.01115 0.0080472 0)
(1.01113 0.00781026 0)
(1.01085 0.00794002 0)
(1.0003 0.000593771 0)
(0.999987 0.00209408 0)
(1.00068 0.00370033 0)
(1.00241 0.00397546 0)
(1.00392 0.00385952 0)
(1.00323 0.00490146 0)
(1.00249 0.00635597 0)
(1.00408 0.00700897 0)
(1.00583 0.0065746 0)
(1.00591 0.00680305 0)
(1.00509 0.00782543 0)
(1.0063 0.00843623 0)
(1.00798 0.00796361 0)
(1.00893 0.0076471 0)
(1.00842 0.00799324 0)
(1.00874 0.008474 0)
(1.00961 0.00837108 0)
(1.0109 0.00795985 0)
(1.01107 0.00766583 0)
(1.01094 0.00770249 0)
(1.00028 0.000604139 0)
(1.00002 0.00193225 0)
(1.00062 0.00353543 0)
(1.0022 0.00403249 0)
(1.00378 0.00385198 0)
(1.00331 0.00471537 0)
(1.00258 0.00618753 0)
(1.00395 0.00696473 0)
(1.00566 0.00658193 0)
(1.00599 0.00671088 0)
(1.00529 0.00755926 0)
(1.00626 0.00818918 0)
(1.00777 0.00785415 0)
(1.00888 0.00751417 0)
(1.00858 0.0077122 0)
(1.00882 0.00815529 0)
(1.00947 0.00814639 0)
(1.01067 0.0078434 0)
(1.01095 0.00753492 0)
(1.01097 0.00748882 0)
(1.00027 0.000610532 0)
(1.00005 0.00181084 0)
(1.00059 0.0033637 0)
(1.00201 0.00404944 0)
(1.00362 0.0038705 0)
(1.00338 0.00456865 0)
(1.0027 0.00598333 0)
(1.00386 0.00686239 0)
(1.00548 0.00656822 0)
(1.00603 0.00661669 0)
(1.00547 0.00731325 0)
(1.00626 0.00793548 0)
(1.00757 0.00772001 0)
(1.00878 0.00738955 0)
(1.00869 0.00744655 0)
(1.00892 0.00783604 0)
(1.00937 0.00789788 0)
(1.01046 0.00768365 0)
(1.01079 0.00740692 0)
(1.01094 0.00729955 0)
(1.00026 0.000612522 0)
(1.00008 0.00172593 0)
(1.00059 0.00318809 0)
(1.00184 0.00402577 0)
(1.00345 0.0038958 0)
(1.00343 0.00445898 0)
(1.00283 0.00576543 0)
(1.00379 0.00670977 0)
(1.00531 0.00652443 0)
(1.00604 0.00652381 0)
(1.00562 0.00707321 0)
(1.00627 0.00767558 0)
(1.0074 0.00755298 0)
(1.00865 0.00726362 0)
(1.00875 0.00720764 0)
(1.00902 0.00750935 0)
(1.00932 0.00763299 0)
(1.01028 0.00749315 0)
(1.01063 0.00725841 0)
(1.01086 0.00713593 0)
(1.00025 0.000611232 0)
(1.0001 0.00166449 0)
(1.00061 0.00301445 0)
(1.0017 0.00396516 0)
(1.00327 0.00391445 0)
(1.00346 0.00438065 0)
(1.00297 0.00554492 0)
(1.00375 0.00653215 0)
(1.00514 0.00644805 0)
(1.00601 0.00642473 0)
(1.00575 0.00683799 0)
(1.0063 0.00740825 0)
(1.00724 0.00736479 0)
(1.0085 0.00712155 0)
(1.00875 0.00700155 0)
(1.0091 0.0071931 0)
(1.0093 0.00733769 0)
(1.01012 0.00727958 0)
(1.01047 0.00707217 0)
(1.01074 0.00697497 0)
(1.00024 0.000605985 0)
(1.00012 0.00161911 0)
(1.00064 0.00285043 0)
(1.00158 0.00387254 0)
(1.0031 0.00391925 0)
(1.00346 0.00431958 0)
(1.0031 0.00533707 0)
(1.00373 0.00633342 0)
(1.00499 0.00634626 0)
(1.00596 0.00630891 0)
(1.00585 0.00661037 0)
(1.00634 0.00713319 0)
(1.00711 0.00716152 0)
(1.00833 0.00696093 0)
(1.0087 0.00680685 0)
(1.00915 0.00691305 0)
(1.0093 0.00702419 0)
(1.01 0.0070423 0)
(1.01032 0.00686182 0)
(1.01061 0.00678282 0)
(1.00023 0.000596331 0)
(1.00013 0.00158649 0)
(1.00067 0.00269757 0)
(1.0015 0.00375851 0)
(1.00293 0.00390718 0)
(1.00345 0.00426535 0)
(1.00321 0.00514582 0)
(1.00374 0.00611547 0)
(1.00484 0.00622664 0)
(1.00588 0.00618781 0)
(1.00592 0.00638764 0)
(1.00638 0.00684966 0)
(1.007 0.00693447 0)
(1.00816 0.00678847 0)
(1.00862 0.00660475 0)
(1.00915 0.00665624 0)
(1.00931 0.0067168 0)
(1.0099 0.00677215 0)
(1.01018 0.00664228 0)
(1.01049 0.00655108 0)
(1.00022 0.000583039 0)
(1.00014 0.00155989 0)
(1.00071 0.00255826 0)
(1.00143 0.00362869 0)
(1.00278 0.00387731 0)
(1.00341 0.00421367 0)
(1.00332 0.00496346 0)
(1.00377 0.00588568 0)
(1.00472 0.00608083 0)
(1.00578 0.00606279 0)
(1.00596 0.00616956 0)
(1.00642 0.00656454 0)
(1.00691 0.00668202 0)
(1.00798 0.00660527 0)
(1.0085 0.00640796 0)
(1.00911 0.00640388 0)
(1.00929 0.00642495 0)
(1.00983 0.00647523 0)
(1.01004 0.00640602 0)
(1.01037 0.00630353 0)
(1.00022 0.000567803 0)
(1.00015 0.00153515 0)
(1.00074 0.00243258 0)
(1.00139 0.0034862 0)
(1.00264 0.00382595 0)
(1.00335 0.00416232 0)
(1.0034 0.00479257 0)
(1.0038 0.00565401 0)
(1.00461 0.00590985 0)
(1.00566 0.00592583 0)
(1.00596 0.00596085 0)
(1.00645 0.0062782 0)
(1.00685 0.0064067 0)
(1.00782 0.00639055 0)
(1.00834 0.00621828 0)
(1.00903 0.00616264 0)
(1.00925 0.00614527 0)
(1.00977 0.00617431 0)
(1.00991 0.00614368 0)
(1.01023 0.00605904 0)