/*--------------------------------*- C++ -*----------------------------------*\
| =========                 |                                                 |
| \\      /  F ield         | OpenFOAM: The Open Source CFD Toolbox           |
|  \\    /   O peration     | Version:  3.0.1                                 |
|   \\  /    A nd           | Web:      www.OpenFOAM.org                      |
|    \\/     M anipulation  |                                                 |
\*---------------------------------------------------------------------------*/
FoamFile
{
    version     2.0;
    format      ascii;
    class       volScalarField;
    location    "4.2";
    object      p;
}
// * * * * * * * * * * * * * * * * * * * * * * * * * * * * * * * * * * * * * //

dimensions      [0 2 -2 0 0 0 0];

internalField   nonuniform List<scalar> 
9600
(
4.62696e-12
-0.00217329
-0.00496121
-0.00463733
0.0043953
0.0016541
-0.00490072
-0.00588537
-0.00909881
-0.0116851
-0.0124602
-0.0114444
-0.0125579
-0.0136145
-0.0145942
-0.0148968
-0.0139651
-0.012969
-0.0114473
-0.00589058
6.36465e-06
-0.00218928
-0.00495874
-0.00461993
0.00424938
0.00162623
-0.00487191
-0.006008
-0.00908893
-0.0116758
-0.0124825
-0.0114271
-0.0125604
-0.013623
-0.0145944
-0.0148948
-0.0139354
-0.013006
-0.0111345
-0.00628887
1.22992e-05
-0.00221049
-0.00494673
-0.00459524
0.00409461
0.00159336
-0.00483024
-0.00607727
-0.00906541
-0.01166
-0.0124948
-0.0114028
-0.0125718
-0.0136285
-0.0145971
-0.0148826
-0.0139266
-0.0130429
-0.0109609
-0.00684913
1.24555e-05
-0.00223707
-0.00493008
-0.00457214
0.00392944
0.00155265
-0.00480185
-0.00615241
-0.00903515
-0.0116329
-0.0125026
-0.0113938
-0.0125871
-0.0136316
-0.0146076
-0.0148724
-0.0139252
-0.0130798
-0.0108772
-0.00732997
6.66066e-06
-0.00227052
-0.00491099
-0.00455141
0.00375268
0.0015006
-0.00478758
-0.00623171
-0.00899762
-0.0115969
-0.0125125
-0.0114024
-0.0126027
-0.0136402
-0.0146251
-0.0148683
-0.0139228
-0.0131243
-0.0108134
-0.00776306
-4.54455e-06
-0.00231172
-0.00488987
-0.00453297
0.00356616
0.00143625
-0.00478253
-0.00631415
-0.00895379
-0.0115583
-0.0125287
-0.0114225
-0.0126182
-0.0136536
-0.0146442
-0.014868
-0.0139191
-0.0131725
-0.0107783
-0.00817165
-2.08683e-05
-0.00236056
-0.00486714
-0.0045171
0.00337261
0.00136032
-0.00478541
-0.00640021
-0.00890615
-0.0115207
-0.0125518
-0.0114488
-0.012633
-0.0136687
-0.0146614
-0.0148701
-0.0139133
-0.0132227
-0.0107763
-0.00856052
-4.18908e-05
-0.00241628
-0.00484352
-0.00450351
0.0031743
0.0012737
-0.00479576
-0.00649017
-0.00885674
-0.0114844
-0.0125803
-0.0114778
-0.0126473
-0.0136851
-0.0146753
-0.0148736
-0.0139058
-0.0132743
-0.0108125
-0.00893204
-6.69977e-05
-0.00247795
-0.00481936
-0.00449141
0.0029721
0.00117706
-0.00481231
-0.00658402
-0.00880672
-0.0114486
-0.012613
-0.0115081
-0.012662
-0.0137038
-0.0146853
-0.0148779
-0.0138977
-0.013327
-0.0109046
-0.00928856
-9.55544e-05
-0.00254467
-0.00479458
-0.00448014
0.00276581
0.00107078
-0.00483345
-0.00668133
-0.00875683
-0.0114125
-0.0126494
-0.0115397
-0.012678
-0.013725
-0.0146914
-0.0148824
-0.0138908
-0.01338
-0.0110356
-0.00963359
-0.000127019
-0.00261563
-0.00476907
-0.00446947
0.00255487
0.000955128
-0.00485763
-0.00678143
-0.00870778
-0.0113756
-0.0126896
-0.0115729
-0.0126947
-0.0137487
-0.0146933
-0.014886
-0.0138871
-0.0134333
-0.0111908
-0.00997115
-0.00016097
-0.00269022
-0.004743
-0.00445956
0.00233885
0.000830458
-0.00488373
-0.00688374
-0.0086603
-0.0113377
-0.0127339
-0.0116073
-0.012712
-0.0137749
-0.0146915
-0.0148882
-0.0138889
-0.0134882
-0.0113767
-0.0103046
-0.000197094
-0.00276803
-0.00471677
-0.00445069
0.00211765
0.000697344
-0.00491126
-0.00698788
-0.00861511
-0.0112987
-0.0127824
-0.0116429
-0.0127297
-0.0138033
-0.0146868
-0.0148898
-0.0138976
-0.0135464
-0.0115884
-0.0106367
-0.00023518
-0.0028488
-0.00469095
-0.0044432
0.00189133
0.000556506
-0.00494024
-0.00709366
-0.00857299
-0.0112584
-0.0128351
-0.0116795
-0.0127476
-0.013834
-0.0146807
-0.0148918
-0.0139136
-0.0136092
-0.0118063
-0.0109699
-0.0002751
-0.00293233
-0.00466613
-0.00443736
0.00166009
0.000408694
-0.00497102
-0.007201
-0.00853467
-0.0112163
-0.0128919
-0.0117171
-0.0127655
-0.0138673
-0.0146745
-0.0148958
-0.013937
-0.0136788
-0.0120457
-0.0113051
-0.000316804
-0.0030185
-0.00464291
-0.00443343
0.00142413
0.000254555
-0.00500416
-0.00730977
-0.00850077
-0.0111722
-0.0129529
-0.0117555
-0.0127831
-0.0139037
-0.0146689
-0.0149038
-0.0139678
-0.0137565
-0.0123057
-0.0116418
-0.000360313
-0.00310717
-0.00462186
-0.0044316
0.00118358
9.45807e-05
-0.00504017
-0.00741975
-0.00847203
-0.011126
-0.013018
-0.0117951
-0.0128004
-0.0139437
-0.0146643
-0.0149184
-0.0140068
-0.0138418
-0.0125851
-0.0119804
-0.000405722
-0.00319823
-0.00460352
-0.00443199
0.000938535
-7.084e-05
-0.0050796
-0.00753067
-0.00844924
-0.0110772
-0.0130871
-0.011836
-0.0128166
-0.0139881
-0.0146608
-0.0149414
-0.0140554
-0.013933
-0.012883
-0.0123237
-0.000453189
-0.00329153
-0.0045884
-0.00443472
0.00068902
-0.000241378
-0.00512297
-0.00764226
-0.00843319
-0.0110259
-0.0131601
-0.011879
-0.0128309
-0.0140381
-0.014658
-0.0149731
-0.0141163
-0.014028
-0.0131981
-0.0126754
-0.000502929
-0.00338691
-0.00457703
-0.00443984
0.00043502
-0.000416798
-0.00517076
-0.00775423
-0.00842476
-0.0109719
-0.0132367
-0.011925
-0.0128422
-0.0140954
-0.0146559
-0.0150121
-0.0141932
-0.0141278
-0.013527
-0.0130398
-0.000555205
-0.00348414
-0.00456994
-0.00444743
0.000176487
-0.000596865
-0.00522339
-0.00786634
-0.00842477
-0.0109154
-0.0133163
-0.0119752
-0.0128494
-0.0141612
-0.0146556
-0.0150566
-0.0142899
-0.0142238
-0.0138633
-0.0134226
-0.000610324
-0.00358297
-0.00456769
-0.00445755
-8.66642e-05
-0.0007813
-0.0052813
-0.00797848
-0.00843393
-0.0108569
-0.0133979
-0.0120313
-0.012851
-0.0142365
-0.0146591
-0.0151035
-0.01441
-0.0143214
-0.0141985
-0.0138291
-0.00066863
-0.00368306
-0.00457091
-0.0044702
-0.000354532
-0.000969893
-0.00534478
-0.00809068
-0.00845286
-0.0107969
-0.0134802
-0.0120952
-0.0128461
-0.0143213
-0.0146694
-0.0151482
-0.0145554
-0.014425
-0.0145229
-0.0142619
-0.000730507
-0.00378404
-0.00458026
-0.00448545
-0.000627135
-0.00116258
-0.00541413
-0.00820294
-0.00848203
-0.0107367
-0.0135615
-0.0121686
-0.0128339
-0.0144144
-0.0146907
-0.0151874
-0.0147259
-0.0145415
-0.0148267
-0.014718
-0.000796387
-0.00388552
-0.00459644
-0.00450336
-0.000904451
-0.00135937
-0.00548953
-0.00831545
-0.0085216
-0.0106773
-0.0136405
-0.0122533
-0.0128144
-0.014514
-0.0147281
-0.015218
-0.0149181
-0.014681
-0.0151025
-0.015188
-0.000866735
-0.00398705
-0.00462017
-0.00452401
-0.00118649
-0.00156024
-0.00557093
-0.00842876
-0.00857152
-0.0106201
-0.0137157
-0.0123509
-0.0127881
-0.0146175
-0.0147867
-0.015238
-0.015126
-0.0148541
-0.015348
-0.0156558
-0.000942069
-0.00408812
-0.0046522
-0.00454752
-0.00147308
-0.00176534
-0.00565818
-0.0085435
-0.00863159
-0.0105664
-0.0137857
-0.0124627
-0.0127563
-0.0147219
-0.0148718
-0.0152487
-0.01534
-0.0150687
-0.0155675
-0.0161019
-0.00102295
-0.00418823
-0.00469332
-0.00457407
-0.00176391
-0.00197502
-0.00575083
-0.00866052
-0.00870147
-0.0105177
-0.0138498
-0.0125892
-0.0127213
-0.0148233
-0.0149867
-0.0152544
-0.0155491
-0.0153281
-0.0157734
-0.0165057
-0.00111
-0.00428682
-0.00474425
-0.00460397
-0.00205863
-0.0021898
-0.00584805
-0.00878094
-0.00878088
-0.0104749
-0.0139078
-0.0127302
-0.0126856
-0.0149178
-0.0151337
-0.0152616
-0.0157423
-0.0156301
-0.0159844
-0.0168509
-0.00120388
-0.00438329
-0.00480566
-0.00463758
-0.00235664
-0.00241043
-0.00594873
-0.0089059
-0.00887009
-0.0104384
-0.0139593
-0.0128864
-0.0126524
-0.0150011
-0.0153137
-0.0152792
-0.0159097
-0.0159659
-0.0162218
-0.0171331
-0.0013053
-0.00447703
-0.0048782
-0.0046753
-0.00265732
-0.00263692
-0.0060513
-0.0090365
-0.00897012
-0.0104085
-0.0140041
-0.0130582
-0.0126251
-0.0150689
-0.0155258
-0.0153172
-0.0160449
-0.0163215
-0.0165048
-0.0173656
-0.00141501
-0.00456744
-0.00496234
-0.00471787
-0.00295965
-0.0028722
-0.00615427
-0.00917281
-0.00908214
-0.0103854
-0.0140421
-0.0132455
-0.0126075
-0.0151178
-0.0157672
-0.0153861
-0.0161455
-0.0166787
-0.0168439
-0.017574
-0.00153379
-0.00465395
-0.00505835
-0.00476627
-0.00326218
-0.00311743
-0.00625655
-0.00931423
-0.00920771
-0.0103696
-0.014073
-0.0134483
-0.0126044
-0.0151445
-0.0160334
-0.0154967
-0.0162141
-0.017017
-0.0172357
-0.0177931
-0.00166243
-0.0047361
-0.00516624
-0.00482159
-0.00356317
-0.00337436
-0.00635766
-0.00945973
-0.00934899
-0.010361
-0.0140953
-0.0136667
-0.012622
-0.0151462
-0.0163167
-0.0156584
-0.016259
-0.0173183
-0.0176651
-0.0180556
-0.00180167
-0.00481339
-0.00528595
-0.00488515
-0.00386024
-0.00364524
-0.00645808
-0.00960696
-0.00950819
-0.0103609
-0.0141071
-0.0139002
-0.0126672
-0.015122
-0.0166067
-0.0158782
-0.0162935
-0.0175698
-0.0181117
-0.0183786
-0.00195219
-0.00488479
-0.00541707
-0.00495866
-0.00415092
-0.0039315
-0.00655898
-0.00975256
-0.00968736
-0.010372
-0.0141063
-0.014146
-0.0127474
-0.015074
-0.0168907
-0.0161588
-0.0163342
-0.0177652
-0.0185535
-0.0187597
-0.00211461
-0.00495281
-0.00555855
-0.00504425
-0.00443279
-0.0042337
-0.00666265
-0.00989288
-0.00988748
-0.0103982
-0.0140912
-0.0144003
-0.0128696
-0.0150077
-0.0171536
-0.0164987
-0.0164
-0.0179031
-0.0189716
-0.0191861
-0.00228963
-0.00501657
-0.00570891
-0.00514414
-0.0047036
-0.0045518
-0.00677275
-0.0100243
-0.0101078
-0.0104444
-0.0140609
-0.0146579
-0.0130403
-0.0149323
-0.0173796
-0.0168902
-0.0165122
-0.0179863
-0.0193476
-0.0196439
-0.00247787
-0.00507662
-0.00586598
-0.00526086
-0.00496211
-0.00488448
-0.00689392
-0.0101434
-0.0103458
-0.0105171
-0.014017
-0.0149113
-0.0132626
-0.0148606
-0.0175561
-0.0173196
-0.0166911
-0.0180261
-0.0196615
-0.0201188
-0.0026797
-0.00513425
-0.00602702
-0.00539673
-0.005208
-0.00522875
-0.00703154
-0.0102484
-0.0105972
-0.0106227
-0.0139633
-0.0151524
-0.013535
-0.0148079
-0.0176761
-0.0177665
-0.0169506
-0.0180457
-0.0198948
-0.0205897
-0.00289531
-0.00519108
-0.00618929
-0.00555364
-0.00544206
-0.00558008
-0.00719098
-0.0103404
-0.010856
-0.0107653
-0.0139058
-0.0153741
-0.013852
-0.0147886
-0.0177397
-0.0182079
-0.0172928
-0.0180774
-0.0200403
-0.0210262
-0.00312472
-0.00524921
-0.00634966
-0.00573296
-0.00566675
-0.00593233
-0.00737692
-0.0104219
-0.0111145
-0.0109464
-0.0138532
-0.0155716
-0.0142047
-0.0148143
-0.0177538
-0.0186207
-0.0177078
-0.0181551
-0.0201106
-0.0213949
-0.00336746
-0.00531143
-0.00650505
-0.00593518
-0.00588513
-0.00627908
-0.00759292
-0.0104992
-0.011366
-0.0111646
-0.0138147
-0.0157426
-0.0145831
-0.0148947
-0.0177298
-0.018985
-0.0181781
-0.018304
-0.020133
-0.0216704
-0.00362298
-0.00538032
-0.00665293
-0.00616005
-0.00610157
-0.00661212
-0.00783893
-0.010584
-0.0116064
-0.0114142
-0.0137974
-0.0158867
-0.0149765
-0.0150363
-0.0176837
-0.0192862
-0.0186822
-0.0185362
-0.0201412
-0.0218495
-0.00389077
-0.00545868
-0.00679107
-0.00640624
-0.00632406
-0.00692929
-0.00811027
-0.0106832
-0.0118361
-0.0116862
-0.0138066
-0.0160054
-0.0153746
-0.015241
-0.0176348
-0.0195157
-0.0191947
-0.0188534
-0.0201685
-0.0219502
-0.00416944
-0.00554955
-0.00691855
-0.00667145
-0.00656134
-0.00722773
-0.00839672
-0.0108043
-0.0120558
-0.0119727
-0.0138456
-0.0161022
-0.0157682
-0.0155061
-0.0176041
-0.019675
-0.0196882
-0.0192482
-0.0202418
-0.0219971
-0.00445741
-0.00565577
-0.00703553
-0.0069517
-0.00681995
-0.00750854
-0.00868865
-0.0109497
-0.0122706
-0.0122696
-0.0139169
-0.016182
-0.0161483
-0.0158246
-0.017611
-0.0197754
-0.0201364
-0.0197014
-0.0203809
-0.0220161
-0.00475315
-0.00577981
-0.00714344
-0.00724159
-0.00710461
-0.00777595
-0.00897763
-0.0111185
-0.0124881
-0.0125757
-0.0140198
-0.0162487
-0.0165062
-0.0161867
-0.0176699
-0.0198346
-0.0205202
-0.020186
-0.0205978
-0.0220341
-0.00505434
-0.00592374
-0.00724566
-0.00753402
-0.00741799
-0.00803966
-0.0092581
-0.0113074
-0.0127126
-0.0128897
-0.014153
-0.016308
-0.0168359
-0.0165799
-0.0177887
-0.0198738
-0.0208334
-0.0206716
-0.020891
-0.0220791
-0.00535858
-0.0060894
-0.00734737
-0.00782069
-0.00775945
-0.00831296
-0.00952828
-0.0115079
-0.0129436
-0.0132118
-0.0143168
-0.0163668
-0.0171329
-0.0169894
-0.0179689
-0.0199161
-0.0210828
-0.0211311
-0.0212445
-0.0221755
-0.00566381
-0.00627775
-0.00745495
-0.00809569
-0.00812598
-0.0086078
-0.00978978
-0.0117101
-0.0131791
-0.0135425
-0.0145131
-0.0164328
-0.0173949
-0.0174006
-0.018205
-0.0199813
-0.0212826
-0.0215472
-0.0216335
-0.0223349
-0.00596813
-0.00648868
-0.00757557
-0.00835528
-0.00851003
-0.00893259
-0.0100481
-0.0119082
-0.013414
-0.0138789
-0.0147432
-0.0165148
-0.0176244
-0.0177997
-0.0184857
-0.0200808
-0.0214495
-0.0219146
-0.0220341
-0.0225537
-0.00627047
-0.00672079
-0.0077165
-0.00859864
-0.00889979
-0.00929071
-0.0103153
-0.0121013
-0.0136415
-0.0142166
-0.0150058
-0.0166211
-0.0178284
-0.0181766
-0.0187979
-0.020218
-0.0215992
-0.0222358
-0.022429
-0.0228197
-0.0065709
-0.00697178
-0.00788261
-0.00882784
-0.00928236
-0.00968065
-0.0106049
-0.0122914
-0.0138564
-0.01455
-0.0152961
-0.016759
-0.0180162
-0.0185269
-0.0191284
-0.0203915
-0.0217435
-0.0225154
-0.0228063
-0.0231181
-0.00687013
-0.007238
-0.00807631
-0.0090505
-0.0096492
-0.0100936
-0.0109255
-0.0124868
-0.0140585
-0.0148712
-0.0156067
-0.0169321
-0.018199
-0.018851
-0.0194654
-0.0205984
-0.0218916
-0.0227579
-0.0231563
-0.0234356
-0.00716935
-0.00751683
-0.00829728
-0.0092766
-0.00999704
-0.0105128
-0.0112766
-0.0127015
-0.0142514
-0.0151735
-0.0159291
-0.0171396
-0.0183869
-0.0191516
-0.0197995
-0.0208332
-0.0220531
-0.0229715
-0.0234717
-0.0237587
-0.00747014
-0.00780565
-0.0085437
-0.00951427
-0.0103269
-0.0109249
-0.0116541
-0.0129462
-0.0144428
-0.0154549
-0.0162524
-0.0173759
-0.018587
-0.0194354
-0.0201263
-0.0210874
-0.0222332
-0.0231682
-0.0237491
-0.0240729
-0.00777414
-0.0081029
-0.00881216
-0.00976719
-0.0106429
-0.0113224
-0.0120491
-0.0132238
-0.0146445
-0.0157194
-0.0165668
-0.0176325
-0.018801
-0.0197094
-0.020446
-0.0213531
-0.0224301
-0.0233608
-0.023993
-0.0243646
-0.00808294
-0.00840814
-0.00909774
-0.0100359
-0.0109528
-0.0117043
-0.0124487
-0.0135314
-0.0148666
-0.0159731
-0.0168687
-0.0178996
-0.0190276
-0.019976
-0.0207591
-0.0216284
-0.0226398
-0.0235565
-0.024214
-0.0246254
-0.00839744
-0.00872065
-0.00939698
-0.0103197
-0.011263
-0.0120724
-0.0128428
-0.0138629
-0.0151142
-0.0162248
-0.0171593
-0.0181696
-0.0192638
-0.0202356
-0.0210626
-0.0219127
-0.0228616
-0.023756
-0.0244246
-0.024857
-0.00871796
-0.00904026
-0.00970718
-0.0106175
-0.0115773
-0.0124298
-0.0132282
-0.0142077
-0.0153858
-0.0164834
-0.0174414
-0.0184385
-0.0195048
-0.0204898
-0.0213526
-0.0222005
-0.0230974
-0.0239599
-0.0246331
-0.025071
-0.00904453
-0.00936675
-0.0100268
-0.010927
-0.0118972
-0.0127809
-0.013605
-0.0145564
-0.0156758
-0.0167536
-0.017721
-0.0187055
-0.0197464
-0.0207386
-0.021629
-0.022483
-0.023345
-0.0241703
-0.0248422
-0.0252804
-0.00937695
-0.00969989
-0.0103549
-0.0112457
-0.0122223
-0.0131298
-0.013974
-0.014905
-0.015977
-0.0170334
-0.0180032
-0.018972
-0.0199869
-0.0209795
-0.0218921
-0.0227549
-0.0235968
-0.0243876
-0.0250497
-0.0254892
-0.00971474
-0.0100391
-0.0106909
-0.0115719
-0.0125514
-0.013478
-0.0143369
-0.015252
-0.0162836
-0.0173185
-0.0182883
-0.0192414
-0.0202279
-0.0212116
-0.0221397
-0.0230134
-0.0238454
-0.0246096
-0.0252541
-0.0256931
-0.0100576
-0.0103834
-0.0110337
-0.0119051
-0.0128836
-0.013825
-0.0146962
-0.015597
-0.0165924
-0.0176049
-0.0185714
-0.0195127
-0.0204723
-0.0214388
-0.0223706
-0.0232545
-0.0240847
-0.0248317
-0.0254561
-0.0258889
-0.0104049
-0.0107316
-0.0113819
-0.0122447
-0.0132179
-0.0141697
-0.0150527
-0.0159403
-0.0169019
-0.0178905
-0.0188495
-0.0197798
-0.0207167
-0.0216633
-0.0225888
-0.0234762
-0.0243093
-0.0250489
-0.0256576
-0.0260795
-0.0107562
-0.0110832
-0.0117339
-0.0125896
-0.0135544
-0.0145114
-0.0154046
-0.0162818
-0.0172115
-0.0181741
-0.019122
-0.0200397
-0.020954
-0.0218797
-0.0227942
-0.0236779
-0.0245142
-0.0252556
-0.0258569
-0.026269
-0.0111104
-0.0114368
-0.0120878
-0.0129384
-0.0138934
-0.0148503
-0.0157506
-0.0166202
-0.0175205
-0.0184532
-0.0193865
-0.0202932
-0.021184
-0.0220823
-0.0229812
-0.0238556
-0.0246906
-0.0254388
-0.0260428
-0.0264529
-0.0114664
-0.0117916
-0.0124422
-0.0132896
-0.0142344
-0.0151864
-0.0160901
-0.0169534
-0.0178286
-0.0187287
-0.0196382
-0.0205338
-0.0214067
-0.0222736
-0.023149
-0.0240076
-0.0248313
-0.0255835
-0.0261975
-0.0266156
-0.0118228
-0.0121463
-0.0127949
-0.0136412
-0.0145774
-0.0155203
-0.0164225
-0.0172799
-0.0181332
-0.0190012
-0.0198791
-0.0207531
-0.0216099
-0.0224501
-0.0232959
-0.024134
-0.0249395
-0.0256862
-0.0263096
-0.0267411
-0.0121778
-0.0124987
-0.0131449
-0.0139895
-0.0149198
-0.0158541
-0.0167504
-0.0175999
-0.0184319
-0.0192669
-0.0201103
-0.020953
-0.0217832
-0.0225968
-0.0234105
-0.0242229
-0.0250088
-0.0257433
-0.0263714
-0.026817
-0.0125297
-0.0128491
-0.0134911
-0.0143323
-0.0152572
-0.0161848
-0.0170757
-0.0179175
-0.0187291
-0.0195265
-0.0203283
-0.0211319
-0.0219221
-0.0227004
-0.0234787
-0.0242593
-0.0250261
-0.0257471
-0.0263737
-0.0268281
-0.0128765
-0.0131944
-0.0138312
-0.014669
-0.0155887
-0.0165085
-0.0173952
-0.0182342
-0.019033
-0.0197932
-0.0205416
-0.0212859
-0.0220118
-0.0227312
-0.0234645
-0.0242153
-0.0249695
-0.0256879
-0.0263209
-0.0267962
-0.0132141
-0.0135304
-0.0141646
-0.0149974
-0.0159105
-0.016823
-0.0177071
-0.0185462
-0.0193463
-0.0200947
-0.0207922
-0.0214456
-0.0220508
-0.022633
-0.0232454
-0.0239116
-0.0246268
-0.0253728
-0.0261109
-0.0267541
-0.01354
-0.0138569
-0.0144897
-0.0153163
-0.0162193
-0.0171199
-0.0180004
-0.0188459
-0.019661
-0.0204406
-0.0211783
-0.0218261
-0.0223082
-0.0226925
-0.0230979
-0.02355
-0.0239841
-0.0243464
-0.0246411
-0.0249325
-0.0138556
-0.0141714
-0.0148004
-0.0156207
-0.0165139
-0.0173996
-0.018263
-0.019103
-0.0198991
-0.0205637
-0.0210982
-0.0215789
-0.022054
-0.022538
-0.0230114
-0.0234772
-0.0239247
-0.0243544
-0.0247886
-0.0252729
-0.0141625
-0.0144671
-0.015089
-0.0159026
-0.0167945
-0.0176789
-0.0184865
-0.0191837
-0.019827
-0.0204376
-0.0210551
-0.0216713
-0.0222633
-0.0228353
-0.0233412
-0.0237687
-0.0241182
-0.0243784
-0.0245976
-0.0248638
-0.0144725
-0.0147485
-0.0153107
-0.0160452
-0.0168526
-0.0176601
-0.0184383
-0.0191693
-0.0198778
-0.0205503
-0.0211829
-0.0217926
-0.0223401
-0.0228595
-0.0234067
-0.0240058
-0.0247004
-0.025471
-0.026278
-0.0270338
-0.0147848
-0.0150746
-0.015537
-0.0161579
-0.0168898
-0.0176811
-0.0184998
-0.0192855
-0.0200325
-0.0207383
-0.0213634
-0.0219422
-0.0224825
-0.0229536
-0.0233881
-0.0237619
-0.0240673
-0.0243217
-0.0245779
-0.0249288
-0.0149875
-0.0152648
-0.0156981
-0.0162706
-0.0169621
-0.017737
-0.0185571
-0.0193541
-0.0200967
-0.0207925
-0.0214142
-0.0219673
-0.0224882
-0.0229563
-0.0233935
-0.0238189
-0.0242356
-0.0246591
-0.0251074
-0.0256402
0.00352779
-0.00558949
-0.0168195
-0.0245834
-0.0273502
-0.0272894
-0.0270241
-0.0274491
-0.0284311
-0.0295229
-0.0303107
-0.0306979
-0.0309917
-0.031493
-0.0321266
-0.0327316
-0.0333078
-0.0338288
-0.0342899
-0.0348184
-0.0354572
-0.0361305
-0.0367874
-0.0374004
-0.0380044
-0.0387001
-0.0394886
-0.0402802
-0.0410417
-0.0418173
-0.0426322
-0.0434555
-0.0442444
-0.0450229
-0.0458517
-0.046721
-0.0475659
-0.0483769
-0.0492078
-0.0500829
-0.0509628
-0.0518233
-0.0527151
-0.0537002
-0.0547401
-0.0557464
-0.0567197
-0.0576842
-0.0586494
-0.0596288
-0.060654
-0.061722
-0.0628121
-0.0639273
-0.065063
-0.0661895
-0.0673387
-0.0685214
-0.0697109
-0.0709238
-0.0721783
-0.0734365
-0.0746945
-0.0759826
-0.0772894
-0.0786061
-0.0799648
-0.0813582
-0.0827649
-0.0841798
-0.0856237
-0.0870926
-0.0885923
-0.0901106
-0.0916598
-0.093251
-0.0948805
-0.0965424
-0.0982175
-0.0999211
-0.101638
-0.103407
-0.105204
-0.107049
-0.108914
-0.110817
-0.112745
-0.11471
-0.116715
-0.118743
-0.120823
-0.122913
-0.125064
-0.127222
-0.129419
-0.131629
-0.133866
-0.136078
-0.138178
-0.140317
0.00206611
-0.00577537
-0.016736
-0.0244472
-0.0272638
-0.0272442
-0.0269942
-0.0274292
-0.0284183
-0.0295146
-0.0303053
-0.0306937
-0.0309874
-0.0314887
-0.0321226
-0.0327278
-0.0333045
-0.0338259
-0.0342871
-0.0348157
-0.0354547
-0.0361283
-0.0367854
-0.0373985
-0.0380026
-0.0386983
-0.0394869
-0.0402787
-0.0410402
-0.0418159
-0.0426308
-0.0434542
-0.0442432
-0.0450217
-0.0458505
-0.0467199
-0.047565
-0.048376
-0.0492069
-0.0500821
-0.050962
-0.0518226
-0.0527143
-0.0536995
-0.0547395
-0.0557459
-0.0567192
-0.0576837
-0.058649
-0.0596284
-0.0606536
-0.0617216
-0.0628117
-0.0639269
-0.0650626
-0.0661892
-0.0673384
-0.0685211
-0.0697106
-0.0709235
-0.0721781
-0.0734362
-0.0746943
-0.0759823
-0.0772892
-0.0786058
-0.0799646
-0.081358
-0.0827647
-0.0841796
-0.0856235
-0.0870924
-0.0885921
-0.0901104
-0.0916596
-0.0932509
-0.0948803
-0.0965423
-0.0982174
-0.0999209
-0.101638
-0.103407
-0.105203
-0.107049
-0.108914
-0.110817
-0.112745
-0.11471
-0.116715
-0.118743
-0.120823
-0.122913
-0.125064
-0.127222
-0.129419
-0.131629
-0.133866
-0.136078
-0.138178
-0.140317
0.000915494
-0.00589543
-0.016545
-0.0241946
-0.0271228
-0.0271941
-0.0269685
-0.0274066
-0.0283986
-0.0294991
-0.0302942
-0.0306865
-0.0309829
-0.0314855
-0.0321196
-0.0327244
-0.0333011
-0.033823
-0.0342845
-0.0348132
-0.0354524
-0.0361262
-0.0367835
-0.0373968
-0.0380009
-0.0386966
-0.0394855
-0.0402774
-0.041039
-0.0418146
-0.0426297
-0.0434531
-0.0442421
-0.0450207
-0.0458495
-0.046719
-0.0475641
-0.0483751
-0.0492061
-0.0500813
-0.0509613
-0.051822
-0.0527137
-0.0536988
-0.054739
-0.0557455
-0.0567188
-0.0576833
-0.0586486
-0.059628
-0.0606532
-0.0617212
-0.0628113
-0.0639266
-0.0650623
-0.0661889
-0.0673381
-0.0685208
-0.0697104
-0.0709233
-0.0721778
-0.073436
-0.0746941
-0.0759821
-0.0772889
-0.0786056
-0.0799644
-0.0813578
-0.0827646
-0.0841794
-0.0856233
-0.0870923
-0.0885919
-0.0901102
-0.0916595
-0.0932507
-0.0948802
-0.0965421
-0.0982173
-0.0999208
-0.101638
-0.103407
-0.105203
-0.107049
-0.108914
-0.110817
-0.112745
-0.11471
-0.116715
-0.118743
-0.120823
-0.122913
-0.125064
-0.127222
-0.129419
-0.131629
-0.133866
-0.136078
-0.138178
-0.140318
-0.00013558
-0.00604249
-0.0163232
-0.023888
-0.0269379
-0.0271293
-0.026935
-0.0273743
-0.0283683
-0.0294715
-0.0302707
-0.0306705
-0.0309748
-0.0314822
-0.0321168
-0.0327203
-0.0332965
-0.0338191
-0.0342815
-0.0348107
-0.03545
-0.0361236
-0.0367812
-0.0373949
-0.037999
-0.0386948
-0.0394838
-0.040276
-0.0410378
-0.0418135
-0.0426285
-0.0434519
-0.0442411
-0.0450196
-0.0458485
-0.046718
-0.0475632
-0.0483742
-0.0492052
-0.0500806
-0.0509606
-0.0518212
-0.0527129
-0.0536981
-0.0547384
-0.055745
-0.0567183
-0.0576829
-0.0586481
-0.0596275
-0.0606527
-0.0617208
-0.062811
-0.0639262
-0.065062
-0.0661886
-0.0673378
-0.0685205
-0.0697101
-0.070923
-0.0721776
-0.0734358
-0.0746938
-0.0759819
-0.0772887
-0.0786054
-0.0799642
-0.0813576
-0.0827644
-0.0841792
-0.0856231
-0.0870921
-0.0885918
-0.0901101
-0.0916593
-0.0932506
-0.09488
-0.096542
-0.0982171
-0.0999207
-0.101638
-0.103407
-0.105203
-0.107049
-0.108913
-0.110817
-0.112745
-0.11471
-0.116715
-0.118743
-0.120822
-0.122913
-0.125064
-0.127222
-0.129419
-0.131629
-0.133866
-0.136078
-0.138178
-0.140318
-0.00119074
-0.00625296
-0.0161059
-0.0235681
-0.0267363
-0.0270573
-0.0268977
-0.0273356
-0.0283288
-0.0294316
-0.0302334
-0.0306432
-0.0309607
-0.0314768
-0.0321134
-0.0327151
-0.0332898
-0.0338132
-0.0342777
-0.0348083
-0.0354475
-0.0361206
-0.0367783
-0.0373926
-0.0379971
-0.0386927
-0.0394816
-0.0402742
-0.0410365
-0.0418124
-0.0426272
-0.0434505
-0.0442398
-0.0450186
-0.0458475
-0.0467169
-0.047562
-0.0483732
-0.0492042
-0.0500796
-0.0509597
-0.0518203
-0.052712
-0.0536973
-0.0547378
-0.0557445
-0.0567178
-0.0576823
-0.0586476
-0.059627
-0.0606522
-0.0617204
-0.0628106
-0.0639259
-0.0650617
-0.0661883
-0.0673375
-0.0685202
-0.0697098
-0.0709227
-0.0721773
-0.0734355
-0.0746936
-0.0759817
-0.0772885
-0.0786052
-0.0799639
-0.0813574
-0.0827642
-0.0841791
-0.0856229
-0.0870919
-0.0885916
-0.0901099
-0.0916591
-0.0932504
-0.0948799
-0.0965418
-0.098217
-0.0999205
-0.101638
-0.103407
-0.105203
-0.107049
-0.108913
-0.110817
-0.112745
-0.11471
-0.116715
-0.118743
-0.120822
-0.122913
-0.125064
-0.127222
-0.129419
-0.131629
-0.133866
-0.136078
-0.138178
-0.140319
-0.00224623
-0.00652118
-0.0158963
-0.0232434
-0.0265254
-0.0269815
-0.0268606
-0.0272951
-0.0282848
-0.0293849
-0.0301872
-0.0306073
-0.0309408
-0.0314683
-0.0321081
-0.0327079
-0.0332808
-0.0338053
-0.034273
-0.0348057
-0.0354448
-0.0361171
-0.0367749
-0.0373903
-0.0379955
-0.0386906
-0.0394787
-0.0402716
-0.041035
-0.0418114
-0.0426257
-0.0434487
-0.0442383
-0.0450176
-0.0458465
-0.0467155
-0.0475606
-0.048372
-0.0492032
-0.0500785
-0.0509584
-0.051819
-0.0527108
-0.0536963
-0.0547369
-0.0557438
-0.0567172
-0.0576817
-0.0586469
-0.0596263
-0.0606517
-0.0617199
-0.0628101
-0.0639254
-0.0650613
-0.0661879
-0.0673371
-0.0685199
-0.0697095
-0.0709224
-0.072177
-0.0734353
-0.0746933
-0.0759814
-0.0772883
-0.0786049
-0.0799637
-0.0813572
-0.082764
-0.0841789
-0.0856227
-0.0870917
-0.0885914
-0.0901097
-0.0916589
-0.0932502
-0.0948797
-0.0965417
-0.0982168
-0.0999204
-0.101637
-0.103407
-0.105203
-0.107049
-0.108913
-0.110817
-0.112745
-0.11471
-0.116715
-0.118743
-0.120822
-0.122913
-0.125064
-0.127222
-0.129419
-0.131629
-0.133866
-0.136078
-0.138178
-0.140319
-0.00328921
-0.0068391
-0.0156972
-0.022916
-0.026305
-0.0269012
-0.0268242
-0.0272541
-0.0282384
-0.029335
-0.0301369
-0.0305671
-0.0309172
-0.031457
-0.0321004
-0.0326985
-0.0332695
-0.0337959
-0.0342677
-0.034803
-0.0354418
-0.0361129
-0.0367711
-0.0373883
-0.0379947
-0.0386889
-0.0394754
-0.0402684
-0.0410332
-0.0418104
-0.042624
-0.0434462
-0.0442363
-0.0450165
-0.0458453
-0.0467137
-0.0475587
-0.0483707
-0.0492022
-0.0500772
-0.0509568
-0.0518175
-0.0527095
-0.053695
-0.0547357
-0.0557428
-0.0567164
-0.0576809
-0.058646
-0.0596256
-0.060651
-0.0617192
-0.0628094
-0.0639249
-0.0650608
-0.0661874
-0.0673366
-0.0685194
-0.0697091
-0.070922
-0.0721767
-0.073435
-0.074693
-0.0759811
-0.077288
-0.0786046
-0.0799634
-0.081357
-0.0827638
-0.0841786
-0.0856225
-0.0870915
-0.0885912
-0.0901095
-0.0916587
-0.09325
-0.0948795
-0.0965415
-0.0982167
-0.0999202
-0.101637
-0.103407
-0.105203
-0.107049
-0.108913
-0.110817
-0.112745
-0.11471
-0.116715
-0.118743
-0.120822
-0.122912
-0.125063
-0.127222
-0.129419
-0.131629
-0.133866
-0.136078
-0.138179
-0.140321
-0.00430838
-0.00720343
-0.0155139
-0.0225881
-0.0260745
-0.0268144
-0.0267881
-0.027213
-0.02819
-0.0292828
-0.0300844
-0.0305246
-0.0308915
-0.0314436
-0.0320906
-0.032687
-0.0332566
-0.0337853
-0.0342619
-0.0348001
-0.0354384
-0.0361081
-0.0367668
-0.0373867
-0.0379949
-0.0386881
-0.0394722
-0.0402647
-0.0410311
-0.0418092
-0.042622
-0.0434432
-0.0442339
-0.0450151
-0.0458439
-0.0467114
-0.0475563
-0.0483692
-0.0492013
-0.0500758
-0.0509549
-0.0518158
-0.0527081
-0.0536935
-0.0547341
-0.0557415
-0.0567155
-0.0576799
-0.058645
-0.0596246
-0.0606501
-0.0617184
-0.0628087
-0.0639242
-0.0650602
-0.0661867
-0.0673359
-0.0685188
-0.0697085
-0.0709215
-0.0721762
-0.0734346
-0.0746927
-0.0759808
-0.0772877
-0.0786043
-0.0799632
-0.0813567
-0.0827635
-0.0841784
-0.0856223
-0.0870913
-0.0885909
-0.0901093
-0.0916585
-0.0932498
-0.0948793
-0.0965413
-0.0982165
-0.0999201
-0.101637
-0.103406
-0.105203
-0.107048
-0.108913
-0.110816
-0.112744
-0.114709
-0.116714
-0.118743
-0.120822
-0.122912
-0.125063
-0.127222
-0.129418
-0.131629
-0.133866
-0.136079
-0.138179
-0.140322
-0.00529465
-0.00761231
-0.0153529
-0.0222624
-0.0258334
-0.0267193
-0.0267513
-0.0271722
-0.02814
-0.0292287
-0.0300301
-0.0304804
-0.0308642
-0.0314288
-0.0320794
-0.0326741
-0.0332424
-0.0337739
-0.0342558
-0.0347971
-0.0354346
-0.0361026
-0.036762
-0.0373851
-0.0379958
-0.038688
-0.0394694
-0.0402611
-0.0410289
-0.0418079
-0.0426197
-0.0434398
-0.0442311
-0.0450137
-0.0458422
-0.0467084
-0.0475531
-0.0483674
-0.0492003
-0.0500744
-0.0509529
-0.0518141
-0.0527067
-0.0536918
-0.0547322
-0.0557399
-0.0567142
-0.0576787
-0.0586438
-0.0596236
-0.0606492
-0.0617174
-0.0628077
-0.0639233
-0.0650594
-0.066186
-0.0673352
-0.0685181
-0.0697079
-0.0709209
-0.0721757
-0.0734341
-0.0746922
-0.0759804
-0.0772872
-0.0786039
-0.0799628
-0.0813564
-0.0827632
-0.0841781
-0.085622
-0.087091
-0.0885907
-0.090109
-0.0916582
-0.0932495
-0.094879
-0.0965411
-0.0982163
-0.0999199
-0.101637
-0.103406
-0.105202
-0.107048
-0.108913
-0.110816
-0.112744
-0.114709
-0.116714
-0.118742
-0.120822
-0.122912
-0.125063
-0.127221
-0.129418
-0.131629
-0.133866
-0.136079
-0.13818
-0.140324
-0.00624105
-0.0080631
-0.0152195
-0.0219414
-0.0255812
-0.0266136
-0.0267131
-0.0271324
-0.0280891
-0.0291728
-0.0299741
-0.0304347
-0.0308356
-0.0314128
-0.0320668
-0.0326599
-0.0332271
-0.0337616
-0.0342494
-0.034794
-0.0354306
-0.0360968
-0.0367568
-0.0373834
-0.0379972
-0.0386886
-0.0394672
-0.0402577
-0.0410267
-0.0418064
-0.042617
-0.043436
-0.0442283
-0.0450122
-0.0458402
-0.0467047
-0.0475492
-0.048365
-0.0491991
-0.0500728
-0.0509508
-0.0518125
-0.0527056
-0.0536903
-0.0547301
-0.0557379
-0.0567126
-0.0576771
-0.0586422
-0.0596224
-0.0606482
-0.0617164
-0.0628066
-0.0639222
-0.0650584
-0.066185
-0.0673342
-0.0685171
-0.069707
-0.0709201
-0.0721749
-0.0734334
-0.0746917
-0.0759799
-0.0772867
-0.0786035
-0.0799624
-0.081356
-0.0827629
-0.0841778
-0.0856217
-0.0870907
-0.0885904
-0.0901088
-0.0916579
-0.0932493
-0.0948788
-0.0965409
-0.098216
-0.0999196
-0.101637
-0.103406
-0.105202
-0.107048
-0.108913
-0.110816
-0.112744
-0.114709
-0.116714
-0.118742
-0.120822
-0.122912
-0.125063
-0.127221
-0.129418
-0.131629
-0.133866
-0.136079
-0.138181
-0.140326
-0.00714326
-0.00855193
-0.0151176
-0.021627
-0.0253179
-0.0264954
-0.0266727
-0.0270948
-0.0280384
-0.0291155
-0.0299165
-0.0303873
-0.0308056
-0.0313954
-0.032053
-0.0326443
-0.0332105
-0.0337485
-0.0342426
-0.0347908
-0.0354265
-0.0360906
-0.0367513
-0.0373816
-0.0379987
-0.0386896
-0.0394652
-0.0402545
-0.0410246
-0.0418049
-0.0426141
-0.043432
-0.0442253
-0.0450108
-0.0458381
-0.0467005
-0.0475446
-0.0483622
-0.0491976
-0.050071
-0.0509486
-0.051811
-0.0527049
-0.0536891
-0.0547281
-0.0557359
-0.0567108