/*--------------------------------*- C++ -*----------------------------------*\
| =========                 |                                                 |
| \\      /  F ield         | OpenFOAM: The Open Source CFD Toolbox           |
|  \\    /   O peration     | Version:  3.0.1                                 |
|   \\  /    A nd           | Web:      www.OpenFOAM.org                      |
|    \\/     M anipulation  |                                                 |
\*---------------------------------------------------------------------------*/
FoamFile
{
    version     2.0;
    format      ascii;
    class       surfaceScalarField;
    location    "4.2";
    object      phi;
}
// * * * * * * * * * * * * * * * * * * * * * * * * * * * * * * * * * * * * * //

dimensions      [0 3 -1 0 0 0 0];

internalField   nonuniform List<scalar> 
19000
(
1.2207e-06
1.38039e-06
1.11221e-06
-1.13568e-06
1.14384e-06
6.79412e-07
1.21438e-06
1.02792e-06
1.13628e-06
1.34709e-07
1.07413e-06
-1.18389e-06
1.19544e-06
1.13612e-06
1.11864e-06
2.18203e-08
1.14765e-06
4.06491e-07
1.12938e-06
6.31921e-07
1.10442e-06
-1.94855e-08
1.14931e-06
7.03745e-07
1.12604e-06
4.76016e-07
1.13051e-06
7.29212e-07
1.1308e-06
3.78917e-07
1.13241e-06
2.87962e-07
1.1434e-06
4.61161e-08
1.12947e-06
-1.1789e-07
1.13781e-06
-1.21623e-08
-3.01478e-07
1.08091e-06
1.27462e-06
1.33003e-06
1.1637e-06
-1.02476e-06
1.19418e-06
6.48939e-07
1.27396e-06
9.48132e-07
1.1936e-06
2.15072e-07
1.12707e-06
-1.11735e-06
1.24968e-06
1.0135e-06
1.17004e-06
1.01468e-07
1.19819e-06
3.78336e-07
1.19305e-06
6.37057e-07
1.15875e-06
1.482e-08
1.21655e-06
6.45944e-07
1.18328e-06
5.09281e-07
1.19929e-06
7.13205e-07
1.18377e-06
3.94438e-07
1.20219e-06
2.69545e-07
1.19195e-06
5.63527e-08
1.20118e-06
-1.27118e-07
1.18203e-06
6.99081e-09
-2.85207e-07
1.16575e-06
1.33044e-06
1.28237e-06
1.22102e-06
-9.15331e-07
1.24386e-06
6.261e-07
1.33199e-06
8.59994e-07
1.25624e-06
2.90822e-07
1.18338e-06
-1.04449e-06
1.30178e-06
8.95099e-07
1.2323e-06
1.7095e-07
1.24845e-06
3.62188e-07
1.26415e-06
6.21352e-07
1.21813e-06
6.08437e-08
1.28146e-06
5.82613e-07
1.24546e-06
5.45275e-07
1.26007e-06
6.98602e-07
1.24274e-06
4.11767e-07
1.25695e-06
2.55336e-07
1.2497e-06
6.35954e-08
1.25383e-06
-1.31244e-07
1.24798e-06
1.28394e-08
-2.62475e-07
1.22525e-06
1.38771e-06
1.23877e-06
1.28664e-06
-8.1426e-07
1.29475e-06
6.17982e-07
1.38878e-06
7.65968e-07
1.32374e-06
3.55862e-07
1.247e-06
-9.6775e-07
1.35364e-06
7.88465e-07
1.30516e-06
2.19429e-07
1.30185e-06
3.65493e-07
1.33653e-06
5.86675e-07
1.28153e-06
1.15846e-07
1.33036e-06
5.33778e-07
1.30735e-06
5.68293e-07
1.31292e-06
6.93024e-07
1.30238e-06
4.22314e-07
1.31122e-06
2.46495e-07
1.30916e-06
6.56559e-08
1.31094e-06
-1.33027e-07
1.31003e-06
1.37454e-08
-2.38528e-07
1.28609e-06
1.44657e-06
1.20055e-06
1.36032e-06
-7.2801e-07
1.34983e-06
6.28476e-07
1.44425e-06
6.7155e-07
1.39598e-06
4.04127e-07
1.31918e-06
-8.90944e-07
1.40605e-06
7.01593e-07
1.38349e-06
2.41988e-07
1.36295e-06
3.86028e-07
1.40392e-06
5.45708e-07
1.35078e-06
1.68983e-07
1.37313e-06
5.11428e-07
1.3657e-06
5.75727e-07
1.36866e-06
6.90068e-07
1.36428e-06
4.26687e-07
1.37281e-06
2.37966e-07
1.37365e-06
6.48134e-08
1.37544e-06
-1.34817e-07
1.37647e-06
1.27242e-08
-2.14752e-07
1.35269e-06
1.50767e-06
1.16855e-06
1.44007e-06
-6.60401e-07
1.41241e-06
6.5613e-07
1.49992e-06
5.84042e-07
1.47231e-06
4.31735e-07
1.39882e-06
-8.17456e-07
1.46058e-06
6.39834e-07
1.46145e-06
2.41118e-07
1.43409e-06
4.13391e-07
1.46889e-06
5.10903e-07
1.4256e-06
2.12278e-07
1.42434e-06
5.12684e-07
1.4246e-06
5.75469e-07
1.43135e-06
6.83318e-07
1.43265e-06
4.25389e-07
1.44266e-06
2.27955e-07
1.44497e-06
6.24997e-08
1.44623e-06
-1.36076e-07
1.44843e-06
1.05242e-08
-1.90822e-07
1.4245e-06
1.57196e-06
1.1428e-06
1.52317e-06
-6.11607e-07
1.48485e-06
6.94443e-07
1.55894e-06
5.09953e-07
1.55152e-06
4.3916e-07
1.48324e-06
-7.49181e-07
1.51967e-06
6.03411e-07
1.53724e-06
2.2354e-07
1.5133e-06
4.37341e-07
1.53672e-06
4.87478e-07
1.50383e-06
2.45164e-07
1.48892e-06
5.27599e-07
1.48995e-06
5.74439e-07
1.50138e-06
6.71885e-07
1.50781e-06
4.18956e-07
1.5196e-06
2.16165e-07
1.52237e-06
5.97315e-08
1.52204e-06
-1.35742e-07
1.52467e-06
7.8928e-09
-1.66518e-07
1.50037e-06
1.64037e-06
1.12256e-06
1.60758e-06
-5.78815e-07
1.5672e-06
7.34817e-07
1.62438e-06
4.52776e-07
1.6322e-06
4.31342e-07
1.56991e-06
-6.86896e-07
1.58596e-06
5.87367e-07
1.61266e-06
1.96837e-07
1.59626e-06
4.53745e-07
1.6097e-06
4.74035e-07
1.58413e-06
2.70734e-07
1.56428e-06
5.47451e-07
1.56414e-06
5.74581e-07
1.5787e-06
6.57318e-07
1.58869e-06
4.08968e-07
1.60186e-06
2.02994e-07
1.60473e-06
5.68662e-08
1.60212e-06
-1.33133e-07
1.60454e-06
5.47186e-09
-1.4185e-07
1.57987e-06
1.71352e-06
1.10662e-06
1.69252e-06
-5.57815e-07
1.6573e-06
7.70037e-07
1.69769e-06
4.12386e-07
1.71353e-06
4.15499e-07
1.65773e-06
-6.31097e-07
1.66112e-06
5.83982e-07
1.69037e-06
1.67584e-07
1.68012e-06
4.63993e-07
1.68754e-06
4.66619e-07
1.66686e-06
2.91412e-07
1.64705e-06
5.67261e-07
1.64671e-06
5.7492e-07
1.66318e-06
6.40853e-07
1.67495e-06
3.97196e-07
1.68842e-06
1.89523e-07
1.69117e-06
5.41192e-08
1.68609e-06
-1.28048e-07
1.6879e-06
3.66034e-09
-1.17048e-07
1.6631e-06
1.79165e-06
1.09369e-06
1.77829e-06
-5.44461e-07
1.75223e-06
7.96099e-07
1.7786e-06
3.86018e-07
1.7958e-06
3.98301e-07
1.74697e-06
-5.82267e-07
1.74506e-06
5.85885e-07
1.7722e-06
1.4045e-07
1.76502e-06
4.71167e-07
1.76956e-06
4.62078e-07
1.75305e-06
3.07928e-07
1.73573e-06
5.84575e-07
1.73672e-06
5.73937e-07
1.75441e-06
6.23155e-07
1.76657e-06
3.85042e-07
1.779e-06
1.77092e-07
1.78115e-06
5.19673e-08
1.77362e-06
-1.20522e-07
1.77462e-06
2.66494e-09
-9.25572e-08
1.75013e-06
1.87475e-06
1.08269e-06
1.86576e-06
-5.35474e-07
1.84982e-06
8.12039e-07
1.86592e-06
3.69915e-07
1.88012e-06
3.84101e-07
1.8384e-06
-5.4054e-07
1.83629e-06
5.87988e-07
1.85882e-06
1.17921e-07
1.85271e-06
4.7728e-07
1.8557e-06
4.59094e-07
1.84338e-06
3.20243e-07
1.82983e-06
5.98129e-07
1.83315e-06
5.70613e-07
1.8515e-06
6.04801e-07
1.86299e-06
3.73556e-07
1.87326e-06
1.66823e-07
1.87424e-06
5.09838e-08
1.86445e-06
-1.1073e-07
1.8645e-06
2.61939e-09
-6.89325e-08
1.84087e-06
1.96277e-06
1.07277e-06
1.95588e-06
-5.28585e-07
1.94911e-06
8.18807e-07
1.9584e-06
3.60624e-07
1.96787e-06
3.74628e-07
1.93268e-06
-5.05352e-07
1.93291e-06
5.87758e-07
1.95018e-06
1.00659e-07
1.94469e-06
4.82761e-07
1.94624e-06
4.57549e-07
1.93807e-06
3.28411e-07
1.92878e-06
6.07419e-07
1.93474e-06
5.64655e-07
1.95311e-06
5.86427e-07
1.96323e-06
3.63444e-07
1.97071e-06
1.5934e-07
1.97012e-06
5.15697e-08
1.95841e-06
-9.90162e-08
1.9574e-06
3.62588e-09
-4.6695e-08
1.93516e-06
2.0557e-06
1.06326e-06
2.04944e-06
-5.22326e-07
2.05006e-06
8.18181e-07
2.05513e-06
3.55555e-07
2.06012e-06
3.69637e-07
2.03022e-06
-4.75451e-07
2.03347e-06
5.84515e-07
2.04585e-06
8.82724e-08
2.04145e-06
4.87163e-07
2.04141e-06
4.57591e-07
2.03703e-06
3.32784e-07
2.03181e-06
6.12641e-07
2.04011e-06
5.56353e-07
2.05794e-06
5.68603e-07
2.06634e-06
3.55041e-07
2.071e-06
1.54686e-07
2.06869e-06
5.38775e-08
2.05556e-06
-8.58932e-08
2.05345e-06
5.74001e-09
-2.62121e-08
2.03297e-06
2.15361e-06
1.05365e-06
2.14705e-06
-5.15767e-07
2.15314e-06
8.12088e-07
2.15571e-06
3.52989e-07
2.15753e-06
3.67819e-07
2.13131e-06
-4.49237e-07
2.13725e-06
5.78573e-07
2.14548e-06
8.005e-08
2.14276e-06
4.89883e-07
2.14119e-06
4.59162e-07
2.14008e-06
3.33893e-07
2.13822e-06
6.14496e-07
2.14827e-06
5.46301e-07
2.1652e-06
5.51672e-07
2.17189e-06
3.48357e-07
2.17416e-06
1.52417e-07
2.17016e-06
5.78717e-08
2.15621e-06
-7.19386e-08
2.15305e-06
8.89782e-09
-7.60895e-09
2.13445e-06
2.25661e-06
1.04353e-06
2.24916e-06
-5.08319e-07
2.25899e-06
8.02254e-07
2.26011e-06
3.51869e-07
2.26036e-06
3.67569e-07
2.23628e-06
-4.25155e-07
2.24425e-06
5.70604e-07
2.24892e-06
7.53772e-08
2.24833e-06
4.90477e-07
2.24547e-06
4.62019e-07
2.24704e-06
3.32324e-07
2.24765e-06
6.13889e-07
2.2588e-06
5.35151e-07
2.27481e-06
5.35664e-07
2.27996e-06
3.43202e-07
2.28056e-06
1.51817e-07
2.27505e-06
6.33814e-08
2.26076e-06
-5.76505e-08
2.25679e-06
1.28745e-08
9.22309e-09
2.23995e-06
2.36481e-06
1.03259e-06
2.35611e-06
-4.99617e-07
2.36835e-06
7.90015e-07
2.36859e-06
3.51636e-07
2.36871e-06
3.67442e-07
2.3455e-06
-4.01946e-07
2.35484e-06
5.61271e-07
2.35638e-06
7.38368e-08
2.35815e-06
4.88705e-07
2.35427e-06
4.65896e-07
2.35792e-06
3.28672e-07
2.36016e-06
6.11655e-07
2.37181e-06
5.23497e-07
2.38715e-06
5.20321e-07
2.39102e-06
3.39342e-07
2.39073e-06
1.52104e-07
2.38398e-06
7.01296e-08
2.36966e-06
-4.33289e-08
2.36521e-06
1.73255e-08
2.44926e-08
2.34994e-06
2.47836e-06
1.02063e-06
2.46821e-06
-4.8946e-07
2.48197e-06
7.76255e-07
2.48151e-06
3.52088e-07
2.4826e-06
3.66354e-07
2.45936e-06
-3.787e-07
2.46959e-06
5.51041e-07
2.46829e-06
7.51354e-08
2.47247e-06
4.84521e-07
2.46777e-06
4.70596e-07
2.47295e-06
3.23494e-07
2.4762e-06
6.08406e-07
2.48784e-06
5.11856e-07
2.50293e-06
5.05227e-07
2.50571e-06
3.36569e-07
2.50517e-06
1.52637e-07
2.49758e-06
7.77248e-08
2.48328e-06
-2.90251e-08
2.47873e-06
2.18738e-08
3.83604e-08
2.46486e-06
2.59741e-06
1.00751e-06
2.58571e-06
-4.77753e-07
2.60052e-06
7.6144e-07
2.59934e-06
3.53268e-07
2.60209e-06
3.63604e-07
2.57819e-06
-3.54798e-07
2.58907e-06
5.40161e-07
2.5852e-06
7.90044e-08
2.59168e-06
4.78042e-07
2.5863e-06
4.75977e-07
2.59254e-06
3.17254e-07
2.59647e-06
6.04476e-07
2.60761e-06
5.00711e-07
2.62292e-06
4.89917e-07
2.62471e-06
3.3478e-07
2.62435e-06
1.53001e-07
2.61642e-06
8.56528e-08
2.60194e-06
-1.45414e-08
2.59766e-06
2.61547e-08
5.08863e-08
2.58513e-06
2.72216e-06
9.93178e-07
2.70886e-06
-4.64456e-07
2.72459e-06
7.45712e-07
2.72251e-06
3.55342e-07
2.7273e-06
3.58819e-07
2.70233e-06
-3.29828e-07
2.71378e-06
5.28708e-07
2.70763e-06
8.51523e-08
2.71618e-06
4.69498e-07
2.71024e-06
4.81917e-07
2.71718e-06
3.10312e-07
2.72172e-06
5.99932e-07
2.73192e-06
4.90513e-07
2.74784e-06
4.73997e-07
2.7487e-06
3.33924e-07
2.74862e-06
1.53074e-07
2.74096e-06
9.33165e-08
2.72603e-06
3.8784e-10
2.72219e-06
2.99986e-08
6.19554e-08
2.71112e-06
2.85284e-06
9.77609e-07
2.83791e-06
-4.49532e-07
2.85463e-06
7.29e-07
2.85146e-06
3.58512e-07
2.8584e-06
3.51875e-07
2.83211e-06
-3.03535e-07
2.84414e-06
5.16673e-07
2.83603e-06
9.32631e-08
2.84636e-06
4.59165e-07
2.84e-06
4.88279e-07
2.84735e-06
3.02965e-07
2.85266e-06
5.94624e-07
2.86148e-06
4.8169e-07
2.87826e-06
4.57214e-07
2.87832e-06
3.33867e-07
2.8783e-06
1.53091e-07
2.87157e-06
1.00051e-07
2.856e-06
1.59523e-08
2.85246e-06
3.35454e-08
7.12799e-08
2.84313e-06
2.98972e-06
9.60782e-07
2.97311e-06
-4.3292e-07
2.991e-06
7.11107e-07
2.98656e-06
3.62952e-07
2.99561e-06
3.42829e-07
2.96787e-06
-2.75796e-07
2.98053e-06
5.04011e-07
2.97078e-06
1.03014e-07
2.9826e-06
4.47343e-07
2.97599e-06
4.94893e-07
2.98344e-06
2.95514e-07
2.98982e-06
5.88249e-07
2.99693e-06
4.74574e-07
3.01466e-06
4.39489e-07
3.01417e-06
3.34358e-07
3.01374e-06
1.53521e-07
3.0085e-06
1.05288e-07
2.99235e-06
3.21012e-08
2.98863e-06
3.72624e-08
7.85065e-08
2.98141e-06
3.13312e-06
9.42671e-07
3.11473e-06
-4.14534e-07
3.13405e-06
6.91785e-07
3.12821e-06
3.68792e-07
3.13918e-06
3.31857e-07
3.10999e-06
-2.46604e-07
3.12332e-06
4.90682e-07
3.11225e-06
1.14082e-07
3.12523e-06
4.34362e-07
3.11858e-06
5.01548e-07
3.1258e-06
2.88295e-07
3.13361e-06
5.80434e-07
3.13884e-06
4.6935e-07
3.15739e-06
4.20931e-07
3.15676e-06
3.34994e-07
3.15531e-06
1.54971e-07
3.15193e-06
1.08666e-07
3.13555e-06
4.8478e-08
3.13097e-06
4.18486e-08
8.33742e-08
3.1261e-06
3.28334e-06
9.23243e-07
3.26308e-06
-3.94272e-07
3.28407e-06
6.70796e-07
3.27675e-06
3.76103e-07
3.28942e-06
3.19195e-07
3.25887e-06
-2.16055e-07
3.27287e-06
4.76685e-07
3.26081e-06
1.26138e-07
3.27459e-06
4.20582e-07
3.26814e-06
5.07998e-07
3.27475e-06
2.8168e-07
3.28437e-06
5.70821e-07
3.28769e-06
4.66024e-07
3.3068e-06
4.01823e-07
3.30651e-06
3.35286e-07
3.30349e-06
1.57995e-07
3.30199e-06
1.10165e-07
3.28606e-06
6.44044e-08
3.27986e-06
4.80482e-08
8.59158e-08
3.27732e-06
3.44071e-06
9.0246e-07
3.41849e-06
-3.72044e-07
3.44132e-06
6.47957e-07
3.43252e-06
3.84904e-07
3.44663e-06
3.05086e-07
3.4149e-06
-1.84322e-07
3.42949e-06
4.62096e-07
3.4168e-06
1.38824e-07
3.43098e-06
4.06401e-07
3.42504e-06
5.13944e-07
3.43066e-06
2.76056e-07
3.44234e-06
5.59139e-07
3.44393e-06
4.64434e-07
3.46315e-06
3.82604e-07
3.46376e-06
3.34679e-07
3.45878e-06
1.62974e-07
3.45881e-06
1.1014e-07
3.44417e-06
7.9037e-08
3.4359e-06
5.63214e-08
8.66502e-08
3.43517e-06
3.60559e-06
8.80281e-07
3.58133e-06
-3.47779e-07
3.60612e-06
6.23167e-07
3.59585e-06
3.95166e-07
3.61118e-06
2.89757e-07
3.5785e-06
-1.51636e-07
3.5935e-06
4.47099e-07
3.58058e-06
1.51738e-07
3.59474e-06
3.92247e-07
3.58962e-06
5.19059e-07
3.59392e-06
2.7176e-07
3.60778e-06
5.45273e-07
3.60795e-06
4.64264e-07
3.62672e-06
3.6384e-07
3.62877e-06
3.32625e-07
3.62174e-06
1.70006e-07
3.62259e-06
1.09287e-07
3.6101e-06
9.15297e-08
3.59973e-06
6.6684e-08
8.65506e-08
3.59983e-06
3.77832e-06
8.56669e-07
3.75198e-06
-3.21442e-07
3.77874e-06
5.96404e-07
3.7671e-06
4.06812e-07
3.78343e-06
2.73426e-07
3.75009e-06
-1.18295e-07
3.76519e-06
4.31993e-07
3.7525e-06
1.64432e-07
3.76619e-06
3.78552e-07
3.76223e-06
5.2302e-07
3.76495e-06
2.69037e-07
3.78094e-06
5.29293e-07
3.78012e-06
4.65082e-07
3.79781e-06
3.46143e-07
3.80175e-06
3.28692e-07
3.79285e-06
1.789e-07
3.7937e-06
1.08444e-07
3.78392e-06
1.01302e-07
3.772e-06
7.86062e-08
8.68796e-08
3.77167e-06
3.95926e-06
8.31602e-07
3.93085e-06
-2.93035e-07
3.95954e-06
5.67709e-07
3.94663e-06
4.19726e-07
3.96373e-06
2.56327e-07
3.9301e-06
-8.46668e-08
3.94491e-06
4.17184e-07
3.93291e-06
1.76427e-07
3.94575e-06
3.65718e-07
3.94321e-06
5.25562e-07
3.94426e-06
2.67987e-07
3.96209e-06
5.11459e-07
3.9608e-06
4.66367e-07
3.97683e-06
3.30112e-07
3.9829e-06
3.2263e-07
3.97262e-06
1.89178e-07
3.97253e-06
1.08538e-07
3.96576e-06
1.08063e-07
3.95319e-06
9.11833e-08
8.87877e-08
3.95128e-06
4.14878e-06
8.05071e-07
4.11834e-06
-2.62598e-07
4.14888e-06
5.37174e-07
4.13486e-06
4.33744e-07
4.15245e-06
2.38735e-07
4.11898e-06
-5.11968e-08
4.13301e-06
4.03153e-07
4.1222e-06
1.87245e-07
4.13383e-06
3.54082e-07
4.13289e-06
5.26508e-07
4.1323e-06
2.68575e-07
4.15161e-06
4.92144e-07
4.15036e-06
4.67616e-07
4.16423e-06
3.16248e-07
4.17245e-06
3.14404e-07
4.16145e-06
2.00186e-07
4.15963e-06
1.1035e-07
4.15576e-06
1.11941e-07
4.14365e-06
1.03287e-07
9.30209e-08
4.13942e-06
4.34729e-06
7.77085e-07
4.3149e-06
-2.30208e-07
4.34714e-06
5.04935e-07
4.33224e-06
4.48645e-07
4.34998e-06
2.20988e-07
4.31719e-06
-1.8401e-08
4.32992e-06
3.90419e-07
4.32071e-06
1.96457e-07
4.33091e-06
3.43878e-07
4.3316e-06
5.25822e-07
4.32956e-06
2.70618e-07
4.34993e-06
4.71773e-07
4.34914e-06
4.68403e-07
4.36051e-06
3.04879e-07
4.37074e-06
3.04169e-07
4.35969e-06
2.1124e-07
4.35567e-06
1.14373e-07
4.35412e-06
1.13492e-07
4.34362e-06
1.13782e-07
9.9663e-08
4.33698e-06
4.55519e-06
7.47671e-07
4.52096e-06
-1.95976e-07
4.55471e-06
4.7118e-07
4.53922e-06
4.64134e-07
4.55671e-06
2.03504e-07
4.52518e-06
1.31225e-08
4.53609e-06
3.79517e-07
4.5288e-06
2.03746e-07
4.53751e-06
3.3516e-07
4.53973e-06
5.23606e-07
4.53647e-06
2.73873e-07
4.5575e-06
4.50751e-07
4.55751e-06
4.68384e-07
4.56619e-06
2.96205e-07
4.57816e-06
2.92199e-07
4.5677e-06
2.21697e-07
4.56131e-06
1.20768e-07
4.56121e-06
1.13584e-07
4.5532e-06
1.21796e-07
1.08077e-07
4.54479e-06
4.77291e-06
7.16876e-07
4.73699e-06
-1.60055e-07
4.77201e-06
4.36158e-07
4.75631e-06
4.79837e-07
4.77304e-06
1.86769e-07
4.74345e-06
4.27135e-08
4.75201e-06
3.70954e-07
4.7468e-06
2.08962e-07
4.75418e-06
3.27775e-07
4.75765e-06
5.2014e-07
4.75349e-06
2.78029e-07
4.77478e-06
4.29465e-07
4.77591e-06
4.67253e-07
4.78178e-06
2.90333e-07
4.79505e-06
2.78929e-07
4.7859e-06
2.30851e-07
4.77719e-06
1.2948e-07
4.77758e-06
1.1319e-07
4.77248e-06
1.26896e-07
1.17115e-07
4.76344e-06
5.0009e-06
6.84771e-07
4.96349e-06
-1.22639e-07
4.99945e-06
4.00196e-07
4.984e-06
4.95289e-07
4.99943e-06
1.7134e-07
4.97248e-06
6.96642e-08
4.97826e-06
3.65167e-07
4.97507e-06
2.12155e-07
4.98147e-06
3.21372e-07
4.98583e-06
5.15783e-07
4.98104e-06
2.8282e-07
5.00229e-06
4.08213e-07
5.00478e-06
4.64762e-07
5.00781e-06
2.87307e-07
5.02187e-06
2.64864e-07
5.01466e-06
2.38066e-07
5.00395e-06
1.40184e-07
5.00388e-06
1.13262e-07
5.00163e-06
1.29153e-07
1.25469e-07
4.99327e-06
5.23964e-06
6.5145e-07
5.20097e-06
-8.39756e-08
5.23747e-06
3.63701e-07
5.22283e-06
5.09928e-07
5.23632e-06
1.57845e-07
5.21273e-06
9.32534e-08
5.21544e-06
3.6246e-07
5.21396e-06
2.13638e-07
5.2199e-06
3.1543e-07
5.22481e-06
5.10877e-07
5.21954e-06
2.88086e-07
5.24054e-06
3.87213e-07
5.24461e-06
4.60689e-07
5.24483e-06
2.87095e-07
5.25906e-06
2.50633e-07
5.25436e-06
2.42759e-07
5.24218e-06
1.52363e-07
5.24091e-06
1.14537e-07
5.24085e-06
1.29211e-07
1.31979e-07
5.23434e-06
5.4896e-06
6.17037e-07
5.45e-06
-4.43727e-08
5.48652e-06
3.27179e-07
5.47336e-06
5.23093e-07
5.48423e-06
1.46968e-07
5.46466e-06
1.12829e-07
5.4642e-06
3.62915e-07
5.46386e-06
2.13982e-07
5.46998e-06
3.09313e-07
5.47517e-06
5.05683e-07
5.46946e-06
2.93795e-07
5.49003e-06
3.66639e-07
5.49592e-06
4.54807e-07
5.49346e-06
2.89548e-07
5.50709e-06
2.37011e-07
5.50544e-06
2.44404e-07
5.4924e-06
1.65402e-07
5.48945e-06
1.17492e-07
5.49069e-06
1.27963e-07
1.36011e-07
5.48666e-06
5.75131e-06
5.81689e-07
5.71114e-06
-4.20463e-09
5.74709e-06
2.91233e-07
5.73614e-06
5.34038e-07
5.74371e-06
1.39402e-07
5.72865e-06
1.27889e-07
5.72524e-06
3.66319e-07
5.72526e-06
2.13967e-07
5.73215e-06
3.02425e-07
5.73757e-06
5.00263e-07
5.73131e-06
3.00048e-07
5.7513e-06
3.4665e-07
5.75917e-06
4.4694e-07
5.75436e-06
2.94361e-07
5.76651e-06
2.24862e-07
5.7683e-06
2.4261e-07
5.75511e-06
1.78588e-07
5.75021e-06
1.22401e-07
5.752e-06
1.26168e-07
1.37657e-07
5.75035e-06
6.02529e-06
5.45596e-07
5.985e-06
3.60806e-08
6.01966e-06
2.56569e-07
6.01177e-06
5.41936e-07
6.01534e-06
1.35829e-07
6.00505e-06
1.3818e-07
5.99934e-06
3.72031e-07
5.99877e-06
2.14535e-07
6.00686e-06
2.94337e-07
6.01265e-06
4.94474e-07
6.0057e-06
3.06991e-07
6.02484e-06
3.27513e-07
6.03488e-06
4.36899e-07
6.02818e-06
3.01056e-07
6.038e-06
2.15044e-07
6.04324e-06
2.37377e-07
6.03086e-06
1.90965e-07
6.02386e-06
1.29395e-07
6.02559e-06
1.24441e-07
1.37399e-07
6.02585e-06
6.3121e-06
5.08988e-07
6.27221e-06
7.59639e-08
6.30481e-06
2.23971e-07
6.30082e-06
5.45924e-07
6.29981e-06
1.36845e-07
6.29421e-06
1.43773e-07
6.28719e-06
3.79049e-07
6.28513e-06
2.16599e-07
6.29452e-06
2.84945e-07
6.30106e-06
4.87941e-07
6.29329e-06
3.14754e-07
6.31116e-06
3.09644e-07
6.32349e-06
4.2457e-07
6.31567e-06
3.0888e-07
6.32234e-06
2.08375e-07
6.33063e-06
2.29084e-07
6.32012e-06
2.01473e-07
6.31118e-06
1.38333e-07
6.31219e-06
1.23438e-07
1.35727e-07
6.31386e-06
6.61233e-06
4.72126e-07
6.57344e-06
1.14858e-07
6.60311e-06
1.94295e-07
6.60389e-06
5.45148e-07
6.59786e-06
1.42871e-07
6.59653e-06
1.45107e-07
6.5894e-06
3.86181e-07
6.58507e-06
2.20923e-07
6.59563e-06
2.74389e-07
6.60334e-06
4.80228e-07
6.59474e-06
3.23354e-07
6.61085e-06
2.93538e-07
6.62546e-06
4.09956e-07
6.61741e-06
3.1693e-07
6.62046e-06
2.05325e-07
6.63088e-06
2.18663e-07
6.62335e-06
2.09007e-07
6.61288e-06
1.48809e-07
6.61258e-06
1.23736e-07
1.33092e-07
6.61521e-06
6.92661e-06
4.35307e-07
6.88934e-06
1.52127e-07
6.91521e-06
1.68424e-07
6.92152e-06
5.38842e-07
6.91038e-06
1.54012e-07
6.9123e-06
1.4318e-07
6.90641e-06
3.9207e-07
6.8993e-06
2.2804e-07
6.91063e-06
2.63057e-07
6.91998e-06
4.70875e-07
6.91069e-06
3.32646e-07
6.9245e-06
2.79725e-07
6.94125e-06
3.9321e-07
6.93397e-06
3.24213e-07
6.93338e-06
2.05912e-07
6.94465e-06
2.07393e-07
6.94087e-06
2.1279e-07
6.92971e-06
1.59966e-07
6.92754e-06
1.25908e-07
1.29941e-07
6.93069e-06
7.25559e-06
3.98856e-07
7.22059e-06
1.8712e-07
7.2418e-06
1.4722e-07
7.25416e-06
5.26483e-07
7.23815e-06
1.70023e-07
7.24208e-06
1.3925e-07
7.23877e-06
3.95375e-07
7.22873e-06
2.38077e-07
7.24011e-06
2.51678e-07
7.25147e-06
4.59516e-07
7.2418e-06
3.42322e-07
7.25282e-06
2.68701e-07
7.27131e-06
3.74721e-07
7.26583e-06
3.29695e-07
7.26199e-06
2.09751e-07
7.27271e-06
1.96666e-07
7.27298e-06
2.12529e-07
7.26228e-06
1.70662e-07
7.25802e-06
1.30164e-07
1.26955e-07
7.26101e-06
7.59996e-06
3.63122e-07
7.5679e-06
2.19178e-07
7.58369e-06
1.31436e-07
7.60226e-06
5.07906e-07
7.58213e-06
1.90154e-07
7.58667e-06
1.34717e-07
7.58694e-06
3.95099e-07
7.57434e-06
2.50683e-07
7.58481e-06
2.41199e-07
7.59828e-06
4.46055e-07
7.58879e-06
3.51806e-07
7.59661e-06
2.60884e-07
7.61635e-06
3.54984e-07
7.61344e-06
3.326e-07
7.60714e-06
2.16053e-07
7.61611e-06
1.8769e-07
7.62007e-06
2.08575e-07
7.61103e-06
1.79699e-07
7.60497e-06
1.36227e-07
1.24946e-07
7.60698e-06
7.96046e-06
3.28472e-07
7.93198e-06
2.47661e-07
7.94199e-06
1.2142e-07
7.9662e-06
4.83693e-07
7.94382e-06
2.12538e-07
7.94738e-06
1.31157e-07
7.95187e-06
3.90608e-07
7.93746e-06
2.65099e-07
7.94555e-06
2.33105e-07
7.96084e-06
4.30766e-07
7.95238e-06
3.60262e-07
7.9569e-06
2.56371e-07
7.97716e-06
3.34723e-07
7.97733e-06
3.32424e-07
7.96957e-06
2.23816e-07
7.97597e-06
1.8129e-07
7.98276e-06
2.01784e-07
7.97632e-06
1.8614e-07
7.96922e-06
1.43325e-07
1.24556e-07
7.96961e-06
8.33788e-06
2.95275e-07
8.31356e-06
2.71978e-07
8.31792e-06
1.17066e-07
8.34653e-06
4.5508e-07
8.3246e-06
2.34464e-07
8.32636e-06
1.29402e-07
8.33431e-06
3.82656e-07
8.31794e-06
2.81468e-07
8.32252e-06
2.28527e-07
8.33977e-06
4.13518e-07
8.33337e-06
3.66656e-07
8.33478e-06
2.54963e-07
8.35473e-06
3.14778e-07
8.35812e-06
3.29035e-07
8.34999e-06
2.31944e-07
8.35341e-06
1.77868e-07
8.36191e-06
1.93279e-07
8.35857e-06
1.89482e-07
8.35141e-06
1.50487e-07
1.25916e-07
8.35005e-06
8.73304e-06
2.63897e-07
8.71342e-06
2.91598e-07
8.7125e-06
1.17989e-07
8.74435e-06
4.23229e-07
8.72286e-06
2.5595e-07
8.71731e-06
1.34953e-07
8.72939e-06
3.70582e-07
8.71569e-06
2.95163e-07
8.71715e-06
2.27067e-07
8.73602e-06
3.94649e-07
8.73242e-06
3.70254e-07
8.73135e-06
2.56035e-07
8.75008e-06
2.96051e-07
8.75659e-06
3.22524e-07
8.74911e-06
2.39418e-07
8.74958e-06
1.77403e-07
8.75854e-06
1.84321e-07
8.75846e-06
1.89558e-07
8.75199e-06
1.56959e-07
1.28577e-07
8.74933e-06
9.14682e-06
2.34694e-07
9.13244e-06
3.05975e-07
9.1264e-06
1.24031e-07
9.15944e-06
3.90189e-07
9.13989e-06
2.75498e-07
9.12964e-06
1.45212e-07
9.145e-06
3.5522e-07
9.13397e-06
3.06193e-07
9.13172e-06
2.29314e-07
9.15069e-06
3.75676e-07
9.15034e-06
3.70606e-07
9.1475e-06
2.5888e-07
9.1643e-06
2.79247e-07
9.17355e-06
3.13271e-07
9.16755e-06
2.45421e-07
9.16547e-06
1.79485e-07
9.17374e-06
1.76053e-07
9.17664e-06
1.86651e-07
9.17156e-06
1.62045e-07
1.31953e-07
9.16818e-06
9.58017e-06
2.07981e-07
9.5714e-06
3.14751e-07
9.56087e-06
1.34559e-07
9.59426e-06
3.56794e-07
9.57893e-06
2.90828e-07
9.56383e-06
1.60313e-07
9.57954e-06
3.39511e-07
9.57217e-06
3.13567e-07
9.56729e-06
2.34191e-07
9.58518e-06
3.57783e-07
9.58793e-06
3.6786e-07
9.5841e-06
2.6271e-07
9.59849e-06
2.64859e-07
9.60993e-06
3.01827e-07
9.60599e-06
2.49362e-07
9.60219e-06
1.83285e-07
9.60875e-06
1.69498e-07
9.61407e-06
1.81325e-07
9.61092e-06
1.65194e-07
1.35602e-07
9.60727e-06
1.00341e-05
1.84008e-07
1.00311e-05
3.17726e-07
1.0017e-05
1.48657e-07
1.00492e-05
3.24634e-07
1.00394e-05
3.00593e-07
1.00207e-05
1.79091e-07
1.00345e-05
3.25625e-07
1.00308e-05
3.1731e-07
1.00247e-05
2.40319e-07
1.00408e-05
3.41624e-07
1.00462e-05
3.62535e-07
1.00422e-05
2.66684e-07
1.00539e-05
2.53181e-07
1.00667e-05
2.88953e-07
1.00652e-05
2.50915e-07
1.00606e-05
1.87849e-07
1.00649e-05
1.65184e-07
1.00717e-05
1.74596e-07
1.00709e-05
1.65976e-07
1.39107e-07
1.00674e-05
1.05097e-05
1.62951e-07
1.05126e-05
3.14823e-07
1.04959e-05
1.65378e-07
1.05252e-05
2.95302e-07
1.05219e-05
3.03861e-07
1.0501e-05
2.00052e-07
1.05114e-05
3.15201e-07
1.05108e-05
3.17959e-07
1.05046e-05
2.46489e-07
1.05187e-05
3.27494e-07
1.0526e-05
3.55209e-07
1.05225e-05
2.7025e-07
1.05315e-05
2.44114e-07
1.0545e-05
2.75466e-07
1.0546e-05
2.49969e-07
1.05415e-05
1.92334e-07
1.05436e-05
1.6304e-07
1.05506e-05
1.67631e-07
1.05522e-05
1.64347e-07
1.41901e-07
1.05494e-05
1.10081e-05
1.44877e-07
1.10166e-05
3.06322e-07
1.09985e-05
1.83425e-07
1.10234e-05
2.70495e-07
1.10265e-05
3.00692e-07
1.10054e-05
2.21161e-07
1.10117e-05
3.08942e-07
1.10131e-05
3.16578e-07
1.10077e-05
2.51887e-07
1.102e-05
3.15176e-07
1.10287e-05
3.46448e-07
1.10259e-05
2.73041e-07
1.10327e-05
2.3737e-07
1.1046e-05
2.62131e-07
1.10493e-05
2.46671e-07
1.10456e-05
1.96034e-07
1.1046e-05
1.62632e-07
1.10523e-05
1.61377e-07
1.10559e-05
1.60726e-07
1.43407e-07
1.10544e-05
1.15305e-05
1.29712e-07
1.15439e-05
2.92994e-07
1.15261e-05
2.01148e-07
1.15449e-05
2.51777e-07
1.15538e-05
2.91744e-07
1.15347e-05
2.40298e-07
1.15368e-05
3.06832e-07
1.15389e-05
3.14485e-07
1.15347e-05
2.5603e-07
1.15456e-05
3.04271e-07
1.15554e-05
3.36695e-07
1.15536e-05
2.74798e-07
1.15583e-05
2.32652e-07
1.1571e-05
2.49491e-07
1.15763e-05
2.41375e-07
1.15739e-05
1.98458e-07
1.15732e-05
1.63318e-07
1.15782e-05
1.56319e-07
1.1583e-05
1.55942e-07
1.43273e-07
1.15831e-05
1.20783e-05
1.17255e-07
1.20953e-05
2.75948e-07
1.20796e-05
2.16862e-07
1.20915e-05
2.3991e-07
1.21045e-05
2.78712e-07
1.20894e-05
2.55434e-07
1.2088e-05
3.08257e-07
1.20897e-05
3.12755e-07
1.20868e-05
2.58902e-07
1.20967e-05
2.94412e-07
1.21072e-05
3.26195e-07
1.21066e-05
2.75356e-07
1.21097e-05
2.29563e-07
1.21212e-05
2.3796e-07
1.2128e-05
2.3457e-07
1.21272e-05
1.99312e-07
1.2126e-05
1.64474e-07
1.21298e-05
1.52552e-07
1.21349e-05
1.50804e-07
1.41573e-07
1.21366e-05
1.26527e-05
1.07177e-07
1.26718e-05
2.56865e-07
1.26593e-05
2.29337e-07
1.26648e-05
2.34394e-07
1.26795e-05
2.64046e-07
1.267e-05
2.64924e-07
1.26664e-05
3.11866e-07
1.26671e-05
3.11996e-07
1.26651e-05
2.60962e-07
1.26742e-05
2.85304e-07
1.26853e-05
3.15055e-07
1.2686e-05
2.74629e-07
1.2688e-05
2.27614e-07
1.2698e-05
2.279e-07
1.27059e-05
2.26706e-07
1.27067e-05
1.98552e-07
1.27056e-05
1.65537e-07
1.27082e-05
1.49923e-07
1.27132e-05
1.45846e-07
1.38698e-07
1.27161e-05
1.3255e-05
9.90712e-08
1.32737e-05
2.38162e-07
1.32657e-05
2.37392e-07
1.32661e-05
2.33974e-07
1.32798e-05
2.50319e-07
1.32766e-05
2.68172e-07
1.32731e-05
3.15374e-07
1.32727e-05
3.12401e-07
1.32709e-05
2.62759e-07
1.32794e-05
2.7682e-07
1.32909e-05
3.0347e-07
1.32931e-05
2.72436e-07
1.32944e-05
2.26382e-07
1.33028e-05
2.19424e-07
1.33112e-05
2.18313e-07
1.33135e-05
1.96265e-07
1.3313e-05
1.66038e-07
1.33148e-05
1.48149e-07
1.33193e-05
1.41364e-07
1.3511e-07
1.33229e-05
1.38868e-05
9.24688e-08
1.39049e-05
2.20023e-07
1.39009e-05
2.41361e-07
1.38974e-05
2.37475e-07
1.39071e-05
2.40703e-07
1.39098e-05
2.6541e-07
1.39089e-05
3.16323e-07
1.39077e-05
3.13545e-07
1.39058e-05
2.64643e-07
1.39135e-05
2.69122e-07
1.39253e-05
2.91663e-07
1.39292e-05
2.68625e-07
1.39301e-05
2.2543e-07
1.3937e-05
2.12486e-07
1.39454e-05
2.09916e-07
1.39491e-05
1.92595e-07
1.39494e-05
1.65721e-07
1.39507e-05
1.46836e-07
1.39546e-05
1.37497e-07
1.3118e-07
1.39585e-05
1.45491e-05
8.69903e-08
1.45649e-05
2.04312e-07
1.45652e-05
2.4103e-07
1.45606e-05
2.42087e-07
1.45649e-05
2.36356e-07
1.45713e-05
2.5907e-07
1.45744e-05
3.13193e-07
1.45737e-05
3.14268e-07
1.45715e-05
2.66787e-07
1.45781e-05
2.62591e-07
1.459e-05
2.79746e-07
1.45953e-05
2.63345e-07
1.45965e-05
2.24156e-07
1.46021e-05
2.0693e-07
1.46101e-05
2.01931e-07
1.46148e-05
1.87911e-07
1.46161e-05
1.64362e-07
1.46173e-05
1.45641e-07
1.46206e-05
1.34242e-07
1.27157e-07
1.46246e-05
1.52436e-05
8.2299e-08
1.52571e-05
1.90742e-07
1.52604e-05
2.37812e-07
1.52564e-05
2.46046e-07
1.5257e-05
2.35768e-07
1.52634e-05
2.52653e-07
1.52706e-05
3.05986e-07
1.52717e-05
3.13181e-07
1.52694e-05
2.69078e-07
1.52746e-05
2.57372e-07
1.52862e-05
2.68147e-07
1.52928e-05
2.56745e-07
1.52948e-05
2.2218e-07
1.52994e-05
2.02342e-07
1.53067e-05
1.94619e-07
1.5312e-05
1.82604e-07
1.53144e-05
1.61964e-07
1.53159e-05
1.44158e-07
1.53186e-05
1.31534e-07
1.23261e-07
1.53225e-05
1.59715e-05
7.8174e-08
1.59827e-05
1.79538e-07
1.5988e-05
2.32447e-07
1.59858e-05
2.48291e-07
1.59843e-05
2.37284e-07
1.5989e-05
2.47926e-07
1.5999e-05
2.95932e-07
1.60028e-05
3.09449e-07
1.6001e-05
2.70869e-07
1.6005e-05
2.5335e-07
1.60157e-05
2.57497e-07
1.60234e-05
2.48961e-07
1.60263e-05
2.19296e-07
1.60304e-05
1.98288e-07
1.6037e-05
1.88005e-07
1.60425e-05
1.77059e-07
1.60458e-05
1.58744e-07
1.60479e-05
1.42053e-07
1.60502e-05
1.2915e-07
1.19688e-07
1.60538e-05
1.67343e-05
7.45045e-08
1.67427e-05
1.71128e-07
1.67497e-05
2.2546e-07
1.67499e-05
2.48062e-07
1.67478e-05
2.3939e-07
1.67505e-05
2.45206e-07
1.67615e-05
2.84896e-07
1.6768e-05
3.02968e-07
1.67677e-05
2.71227e-07
1.67707e-05
2.50303e-07
1.67801e-05
2.4811e-07
1.67886e-05
2.4049e-07
1.67926e-05
2.15279e-07
1.67964e-05
1.94439e-07
1.68025e-05
1.81966e-07
1.68081e-05
1.71474e-07
1.68118e-05
1.55006e-07
1.68146e-05
1.39252e-07
1.68171e-05
1.26647e-07
1.16546e-07
1.68202e-05
1.75337e-05
7.11982e-08
1.75411e-05
1.6373e-07
1.75482e-05
2.18367e-07
1.75503e-05
2.45894e-07
1.75486e-05
2.41065e-07
1.75499e-05
2.43941e-07
1.75602e-05
2.74593e-07
1.7569e-05
2.94152e-07
1.75708e-05
2.69499e-07
1.75733e-05
2.47752e-07
1.75815e-05
2.3991e-07
1.759e-05
2.32018e-07
1.75952e-05
2.1011e-07
1.75991e-05
1.90463e-07
1.76047e-05
1.76388e-07
1.76103e-05
1.65833e-07
1.76143e-05
1.51008e-07
1.76176e-05
1.35965e-07
1.76206e-05
1.23694e-07
1.13679e-07
1.76235e-05
1.83713e-05
6.82228e-08
1.83778e-05
1.57217e-07
1.83849e-05
2.11252e-07
1.83887e-05
2.42178e-07
1.83882e-05
2.41565e-07
1.83887e-05
2.43443e-07
1.83975e-05
2.65766e-07
1.84077e-05
2.8398e-07
1.84115e-05
2.65624e-07
1.84144e-05
2.44856e-07
1.84215e-05
2.32827e-07
1.84297e-05
2.23846e-07
1.84356e-05
2.04209e-07
1.84401e-05
1.85951e-07
1.84453e-05
1.71192e-07
1.8451e-05
1.60135e-07
1.84553e-05
1.46707e-07
1.84587e-05
1.32518e-07
1.84622e-05
1.20226e-07
1.10745e-07
1.84651e-05
1.92491e-05
6.55351e-08
1.9255e-05
1.51246e-07
1.9262e-05
2.04301e-07
1.92668e-05
2.37368e-07
1.92678e-05
2.40623e-07
1.92682e-05
2.43036e-07
1.92756e-05
2.58302e-07
1.9286e-05
2.73611e-07
1.92918e-05
2.59863e-07
1.92956e-05
2.40964e-07
1.93019e-05
2.26573e-07
1.93097e-05
2.16055e-07
1.93159e-05
1.98011e-07
1.9321e-05
1.80845e-07
1.93261e-05
1.66052e-07
1.93317e-05
1.5458e-07
1.93365e-05
1.41927e-07
1.934e-05
1.28987e-07
1.93437e-05
1.16519e-07
1.07417e-07
1.9347e-05
2.01689e-05
6.30898e-08
2.01744e-05
1.45686e-07