/*--------------------------------*- C++ -*----------------------------------*\
| =========                 |                                                 |
| \\      /  F ield         | OpenFOAM: The Open Source CFD Toolbox           |
|  \\    /   O peration     | Version:  3.0.1                                 |
|   \\  /    A nd           | Web:      www.OpenFOAM.org                      |
|    \\/     M anipulation  |                                                 |
\*---------------------------------------------------------------------------*/
FoamFile
{
    version     2.0;
    format      ascii;
    class       volVectorField;
    location    "4.2";
    object      U;
}
// * * * * * * * * * * * * * * * * * * * * * * * * * * * * * * * * * * * * * //

dimensions      [0 1 -1 0 0 0 0];

internalField   nonuniform List<vector> 
9600
(
(0.902863 0.0142193 0)
(1.17409 -0.0132847 0)
(0.747574 0.00816371 0)
(1.18941 0.0139019 0)
(0.907287 0.000948271 0)
(1.03057 -0.0188453 0)
(0.816499 0.0202528 0)
(1.21963 -0.000602028 0)
(0.712094 0.00824977 0)
(1.22899 0.0133778 0)
(0.727317 -0.000941009 0)
(1.14353 0.0184794 0)
(0.834997 0.0128536 0)
(1.08241 0.0219592 0)
(0.860199 0.0123867 0)
(1.06913 0.0103577 0)
(0.874018 0.00201064 0)
(1.07637 -0.00515615 0)
(0.85889 -0.000508407 0)
(1.08041 -0.0155947 0)
(0.905571 0.0136851 0)
(1.16531 -0.0118282 0)
(0.752221 0.00805275 0)
(1.17878 0.0129046 0)
(0.917877 0.00251797 0)
(1.02642 -0.0176468 0)
(0.820532 0.0183197 0)
(1.20894 0.00125414 0)
(0.720996 0.00793784 0)
(1.21427 0.0136274 0)
(0.753474 -7.28291e-05 0)
(1.12646 0.0175106 0)
(0.870741 0.0135587 0)
(1.054 0.0219463 0)
(0.910527 0.0127308 0)
(1.02 0.0101009 0)
(0.945096 0.00187477 0)
(1.001 -0.00535907 0)
(0.959615 0.000281715 0)
(0.970638 -0.017109 0)
(0.911106 0.013113 0)
(1.15247 -0.0105635 0)
(0.766602 0.00762937 0)
(1.15443 0.0117229 0)
(0.936097 0.00363095 0)
(1.0179 -0.0165881 0)
(0.832037 0.015864 0)
(1.18709 0.0025775 0)
(0.750495 0.00729104 0)
(1.17647 0.0136745 0)
(0.809391 0.00089261 0)
(1.08105 0.0157635 0)
(0.922435 0.0147271 0)
(1.01508 0.0214077 0)
(0.951222 0.013299 0)
(0.986429 0.00937224 0)
(0.971705 0.00235229 0)
(0.977619 -0.00543011 0)
(0.974834 0.000320404 0)
(0.969974 -0.0136732 0)
(0.919328 0.0126385 0)
(1.13575 -0.0093986 0)
(0.792416 0.00733478 0)
(1.11844 0.0105278 0)
(0.959461 0.00461835 0)
(1.00692 -0.0154654 0)
(0.852243 0.0138791 0)
(1.15385 0.00367126 0)
(0.800929 0.00706049 0)
(1.12094 0.0131232 0)
(0.877662 0.00211624 0)
(1.02567 0.0141059 0)
(0.955548 0.015552 0)
(0.988239 0.0209715 0)
(0.965078 0.013698 0)
(0.9743 0.00894321 0)
(0.974394 0.00255271 0)
(0.974638 -0.00566304 0)
(0.974305 0.00067374 0)
(0.973205 -0.0122693 0)
(0.92979 0.0122302 0)
(1.11581 -0.00838091 0)
(0.827461 0.00733943 0)
(1.07691 0.00929899 0)
(0.982851 0.00542117 0)
(0.997488 -0.0142782 0)
(0.878106 0.0123003 0)
(1.11344 0.00430196 0)
(0.859779 0.00735491 0)
(1.06508 0.0121985 0)
(0.93402 0.00342815 0)
(0.984685 0.0131077 0)
(0.964692 0.0158867 0)
(0.974463 0.0208693 0)
(0.967891 0.0139663 0)
(0.971479 0.00865846 0)
(0.975433 0.00255858 0)
(0.976101 -0.0057266 0)
(0.976303 0.000643297 0)
(0.976028 -0.0112358 0)
(0.941654 0.0118769 0)
(1.09427 -0.00755052 0)
(0.86655 0.00759647 0)
(1.03843 0.00809543 0)
(1.00093 0.0059557 0)
(0.993194 -0.0131025 0)
(0.903734 0.0110711 0)
(1.07346 0.00446705 0)
(0.911931 0.00791446 0)
(1.02464 0.0113078 0)
(0.968701 0.00456239 0)
(0.965991 0.0128889 0)
(0.962982 0.0159625 0)
(0.967993 0.02078 0)
(0.970046 0.0140566 0)
(0.973769 0.00833821 0)
(0.978839 0.00249615 0)
(0.980042 -0.00577825 0)
(0.980128 0.000541114 0)
(0.980111 -0.0101101 0)
(0.95381 0.0115868 0)
(1.07325 -0.00692604 0)
(0.903773 0.00801442 0)
(1.01029 0.00702395 0)
(1.01114 0.0061922 0)
(0.994584 -0.0119987 0)
(0.92439 0.0102668 0)
(1.04117 0.00426238 0)
(0.949048 0.00845691 0)
(1.00342 0.0106718 0)
(0.985591 0.00542935 0)
(0.962792 0.0131955 0)
(0.961466 0.0159544 0)
(0.966206 0.0205067 0)
(0.973503 0.0139358 0)
(0.978968 0.00794939 0)
(0.984092 0.00239143 0)
(0.985188 -0.00579959 0)
(0.984584 0.00040402 0)
(0.984407 -0.00891595 0)
(0.96517 0.0113592 0)
(1.05462 -0.00649364 0)
(0.934883 0.00850374 0)
(0.99512 0.00616659 0)
(1.01441 0.00616974 0)
(0.99909 -0.0109888 0)
(0.93911 0.00985954 0)
(1.02008 0.00382262 0)
(0.970844 0.00885018 0)
(0.995603 0.0103 0)
(0.992616 0.00609282 0)
(0.966063 0.0137052 0)
(0.963347 0.0159485 0)
(0.968181 0.0200962 0)
(0.978159 0.0136567 0)
(0.985095 0.00749274 0)
(0.990084 0.00227388 0)
(0.990616 -0.00573247 0)
(0.989119 0.000287364 0)
(0.988389 -0.0076855 0)
(0.974966 0.0111827 0)
(1.03942 -0.00621163 0)
(0.958284 0.00897284 0)
(0.990702 0.00554404 0)
(1.01367 0.00597945 0)
(1.0033 -0.0100801 0)
(0.949903 0.00972901 0)
(1.00934 0.00328965 0)
(0.981598 0.00910112 0)
(0.993855 0.0101028 0)
(0.995671 0.00662609 0)
(0.970915 0.0142373 0)
(0.967887 0.0159682 0)
(0.972977 0.019621 0)
(0.983925 0.013282 0)
(0.99135 0.00700952 0)
(0.995951 0.00216359 0)
(0.995806 -0.00556463 0)
(0.993437 0.000197519 0)
(0.992023 -0.00643302 0)
(0.982865 0.0110427 0)
(1.02782 -0.00603153 0)
(0.974531 0.00934939 0)
(0.992623 0.00512842 0)
(1.01177 0.00572966 0)
(1.00519 -0.0092808 0)
(0.959189 0.00974359 0)
(1.00558 0.00276695 0)
(0.986404 0.0092686 0)
(0.993932 0.00999034 0)
(0.997527 0.00705746 0)
(0.975947 0.014725 0)
(0.973976 0.0159791 0)
(0.979632 0.0190985 0)
(0.99054 0.0128785 0)
(0.997534 0.00654551 0)
(1.00128 0.00206169 0)
(1.00039 -0.00529091 0)
(0.997295 0.000125544 0)
(0.995266 -0.00518565 0)
(0.988897 0.0109267 0)
(1.01938 -0.00591338 0)
(0.985199 0.00960247 0)
(0.996928 0.00486891 0)
(1.01033 0.0055003 0)
(1.00469 -0.00859301 0)
(0.968088 0.00979675 0)
(1.00526 0.00231623 0)
(0.988959 0.00940352 0)
(0.994507 0.0099143 0)
(0.999067 0.00738979 0)
(0.980972 0.0151314 0)
(0.980815 0.0159299 0)
(0.987172 0.0185465 0)
(0.997394 0.0124881 0)
(1.00332 0.00613867 0)
(1.00585 0.00198574 0)
(1.00411 -0.00490843 0)
(1.00048 9.73221e-05 0)
(0.997996 -0.00398332 0)
(0.993295 0.0108248 0)
(1.01347 -0.00582837 0)
(0.991954 0.00973502 0)
(1.00123 0.00471532 0)
(1.00978 0.00533348 0)
(1.00282 -0.0080107 0)
(0.976407 0.00982383 0)
(1.00607 0.00196026 0)
(0.991027 0.00952207 0)
(0.995444 0.00986339 0)
(1.0005 0.00762555 0)
(0.985839 0.0154253 0)
(0.987646 0.0158012 0)
(0.994568 0.0179919 0)
(1.0037 0.0121264 0)
(1.00823 0.00582271 0)
(1.00944 0.00196582 0)
(1.00687 -0.00443684 0)
(1.00288 0.000125758 0)
(1.00011 -0.00285461 0)
(0.996357 0.0107297 0)
(1.0095 -0.00575703 0)
(0.996102 0.00976631 0)
(1.00451 0.0046295 0)
(1.0099 0.00523585 0)
(1.00071 -0.00751722 0)
(0.983513 0.00980027 0)
(1.00691 0.00169585 0)
(0.992979 0.00962064 0)
(0.996662 0.00984583 0)
(1.00186 0.0077693 0)
(0.990256 0.0156039 0)
(0.993765 0.0155991 0)
(1.00095 0.0174474 0)
(1.00884 0.0118105 0)
(1.01196 0.00561411 0)
(1.01196 0.00202109 0)
(1.00871 -0.00390497 0)
(1.00453 0.000197637 0)
(1.00162 -0.00180112 0)
(0.998375 0.0106356 0)
(1.00701 -0.00568676 0)
(0.998547 0.00972083 0)
(1.00656 0.00458397 0)
(1.01034 0.00519437 0)
(0.99903 -0.00709151 0)
(0.989026 0.00972475 0)
(1.00741 0.00151168 0)
(0.994631 0.00968911 0)
(0.997918 0.00986729 0)
(1.00312 0.00782687 0)
(0.99394 0.0156868 0)
(0.998696 0.0153346 0)
(1.00585 0.0169255 0)
(1.01254 0.0115513 0)
(1.01446 0.00550068 0)
(1.01352 0.00214245 0)
(1.00979 -0.00333908 0)
(1.00557 0.000317593 0)
(1.00262 -0.000822045 0)
(0.999609 0.010538 0)
(1.00559 -0.00560938 0)
(0.999895 0.00962127 0)
(1.00754 0.00456221 0)
(1.01086 0.00518606 0)
(0.997982 -0.00670884 0)
(0.992985 0.00960682 0)
(1.00754 0.00139715 0)
(0.995798 0.00971915 0)
(0.998977 0.00992014 0)
(1.00422 0.00781525 0)
(0.996736 0.0156929 0)
(1.00227 0.0150282 0)
(1.0092 0.0164317 0)
(1.01487 0.011355 0)
(1.01589 0.00545614 0)
(1.01432 0.00232855 0)
(1.01034 -0.00275852 0)
(1.00621 0.00049414 0)
(1.00326 6.96747e-05 0)
(1.00028 0.0104333 0)
(1.00491 -0.00551988 0)
(1.00057 0.00948619 0)
(1.00774 0.00455448 0)
(1.0113 0.00518793 0)
(0.997497 -0.00634756 0)
(0.995684 0.00945969 0)
(1.00736 0.0013428 0)
(0.996473 0.00970411 0)
(0.999736 0.00999603 0)
(1.00508 0.00775065 0)
(0.998652 0.0156476 0)
(1.00456 0.0147001 0)
(1.01118 0.0159643 0)
(1.01608 0.0112049 0)
(1.01652 0.00545343 0)
(1.0146 0.00258418 0)
(1.01055 -0.00217029 0)
(1.00661 0.000702229 0)
(1.00369 0.000872144 0)
(1.00058 0.010319 0)
(1.0047 -0.0054156 0)
(1.00086 0.00932905 0)
(1.00746 0.004556 0)
(1.01161 0.00518211 0)
(0.997417 -0.00599237 0)
(0.997455 0.00929549 0)
(1.00702 0.00134107 0)
(0.99678 0.00964019 0)
(1.0002 0.0100923 0)
(1.00571 0.00764183 0)
(0.999833 0.0155758 0)
(1.00584 0.0143651 0)
(1.01214 0.0155125 0)
(1.01649 0.0110866 0)
(1.01661 0.00546702 0)
(1.01456 0.00288462 0)
(1.01057 -0.00157323 0)
(1.00689 0.000914447 0)
(1.00401 0.00161092 0)
(1.00064 0.0101934 0)
(1.00473 -0.00529508 0)
(1.00098 0.00915776 0)
(1.00695 0.00456618 0)
(1.01176 0.0051561 0)
(0.997587 -0.00563084 0)
(0.998572 0.00911746 0)
(1.00665 0.00139067 0)
(0.996875 0.00952987 0)
(1.00043 0.0102039 0)
(1.00614 0.00750204 0)
(1.0005 0.0154876 0)
(1.00641 0.0140398 0)
(1.01241 0.015055 0)
(1.01637 0.0110101 0)
(1.01636 0.00547714 0)
(1.01431 0.00320646 0)
(1.01048 -0.000961326 0)
(1.00713 0.00111126 0)
(1.00428 0.00229808 0)
(1.00057 0.0100557 0)
(1.00488 -0.00515741 0)
(1.00103 0.00897538 0)
(1.0064 0.00458678 0)
(1.01176 0.00510287 0)
(0.997887 -0.00525575 0)
(0.999234 0.00892951 0)
(1.00631 0.00148696 0)
(0.996887 0.00937498 0)
(1.00048 0.0103288 0)
(1.00645 0.00734041 0)
(1.00087 0.0153859 0)
(1.00654 0.0137361 0)
(1.0123 0.0145847 0)
(1.01595 0.0109747 0)
(1.01593 0.00547073 0)
(1.01396 0.00351656 0)
(1.01034 -0.000330373 0)
(1.00734 0.00128722 0)
(1.00455 0.00291638 0)
(1.00043 0.0099055 0)
(1.00506 -0.00500231 0)
(1.00107 0.00878209 0)
(1.00589 0.00462062 0)
(1.01166 0.00501855 0)
(0.998232 -0.00486184 0)
(0.99959 0.008734 0)
(1.00604 0.00161991 0)
(0.996893 0.00918265 0)
(1.00042 0.0104651 0)
(1.00668 0.00716672 0)
(1.00112 0.0152669 0)
(1.00646 0.0134658 0)
(1.01201 0.0140895 0)
(1.01537 0.0109772 0)
(1.01542 0.00545582 0)
(1.01355 0.00379192 0)
(1.01016 0.000327059 0)
(1.00753 0.00144978 0)
(1.00482 0.00344492 0)
(1.00028 0.0097427 0)
(1.00522 -0.00482951 0)
(1.00111 0.0085768 0)
(1.00549 0.00466879 0)
(1.01147 0.00490568 0)
(0.998565 -0.00444712 0)
(0.999751 0.00852714 0)
(1.00585 0.00178705 0)
(0.996931 0.008958 0)
(1.0003 0.0106078 0)
(1.00685 0.00698902 0)
(1.00133 0.0151219 0)
(1.00627 0.0132437 0)
(1.01168 0.0135589 0)
(1.01474 0.0109993 0)
(1.01488 0.00545918 0)
(1.01314 0.0040272 0)
(1.00998 0.00102289 0)
(1.00771 0.00160963 0)
(1.00511 0.003864 0)
(1.00014 0.00956699 0)
(1.00534 -0.00463765 0)
(1.00114 0.00835553 0)
(1.00521 0.00473518 0)
(1.01123 0.00476316 0)
(0.998857 -0.00400762 0)
(0.999806 0.00830542 0)
(1.00572 0.00198254 0)
(0.997011 0.00870717 0)
(1.00018 0.0107545 0)
(1.00697 0.00681069 0)
(1.00155 0.0149399 0)
(1.00605 0.0130781 0)
(1.01138 0.0129982 0)
(1.01411 0.0110386 0)
(1.01438 0.00548644 0)
(1.01275 0.00418596 0)
(1.0098 0.00173803 0)
(1.00787 0.0017948 0)
(1.00544 0.00416029 0)
(1.00002 0.00937829 0)
(1.00542 -0.0044264 0)
(1.00117 0.00811596 0)
(1.00503 0.00482127 0)
(1.01096 0.00459309 0)
(0.9991 -0.00354424 0)
(0.999812 0.00806948 0)
(1.00566 0.00219639 0)
(0.997133 0.00843711 0)
(1.00007 0.0108992 0)
(1.00705 0.00664933 0)
(1.00179 0.0147102 0)
(1.00584 0.0129678 0)
(1.01116 0.0124167 0)
(1.01353 0.0110698 0)
(1.0139 0.00556555 0)
(1.0124 0.00426357 0)
(1.00963 0.00244056 0)
(1.00799 0.00203602 0)
(1.00579 0.00432201 0)
(0.999925 0.00917618 0)
(1.00548 -0.00419365 0)
(1.0012 0.00785458 0)
(1.00493 0.00492694 0)
(1.01066 0.0044026 0)
(0.9993 -0.00306554 0)
(0.999805 0.00782855 0)
(1.00565 0.00242502 0)
(0.997289 0.00815335 0)
(0.99998 0.0110348 0)
(1.0071 0.00651324 0)
(1.00205 0.0144292 0)
(1.00563 0.0129104 0)
(1.01099 0.0118272 0)
(1.01301 0.0110618 0)
(1.01345 0.00571347 0)
(1.0121 0.00428261 0)
(1.00948 0.00310092 0)
(1.00807 0.00236482 0)
(1.00616 0.00436266 0)
(0.999849 0.00895989 0)
(1.00551 -0.00393874 0)
(1.00123 0.0075704 0)
(1.00486 0.0050513 0)
(1.01036 0.00419327 0)
(0.999471 -0.00256919 0)
(0.9998 0.00757925 0)
(1.00568 0.00266263 0)
(0.997473 0.00787066 0)
(0.999912 0.011152 0)
(1.00713 0.00640186 0)
(1.00231 0.0140943 0)
(1.00541 0.0128965 0)
(1.01088 0.0112436 0)
(1.01255 0.0110157 0)
(1.01302 0.00593073 0)
(1.01184 0.00424497 0)
(1.00935 0.0036833 0)
(1.00811 0.00281095 0)
(1.00655 0.00433416 0)
(0.999793 0.0087298 0)
(1.00552 -0.00366236 0)
(1.00128 0.00726351 0)
(1.0048 0.00519338 0)
(1.01007 0.0039676 0)
(0.999623 -0.00205799 0)
(0.999808 0.00731965 0)
(1.00572 0.00290013 0)
(0.997682 0.00759365 0)
(0.999856 0.0112479 0)
(1.00714 0.00632703 0)
(1.00258 0.0137026 0)
(1.0052 0.0129133 0)
(1.01078 0.0106838 0)
(1.01215 0.0109181 0)
(1.01259 0.00623255 0)
(1.01162 0.00419419 0)
(1.00926 0.00416009 0)
(1.0081 0.00336113 0)
(1.00691 0.00429602 0)
(0.999758 0.00848484 0)
(1.0055 -0.00336188 0)
(1.00134 0.00693112 0)
(1.00474 0.00535511 0)
(1.00979 0.00373013 0)
(0.999762 -0.00154541 0)
(0.999833 0.00706512 0)
(1.00575 0.00312881 0)
(0.997917 0.00732801 0)
(0.999807 0.0113114 0)
(1.00716 0.00629214 0)
(1.00286 0.0132637 0)
(1.00497 0.0129507 0)
(1.01069 0.0101704 0)
(1.01182 0.0107513 0)
(1.01214 0.00659638 0)
(1.01141 0.0041768 0)
(1.00921 0.00450476 0)
(1.00806 0.00396878 0)
(1.00724 0.00431832 0)
(0.999741 0.00822538 0)
(1.00546 -0.00304012 0)
(1.00143 0.00657767 0)
(1.00465 0.00553226 0)
(1.00952 0.00348333 0)
(0.999891 -0.00102749 0)
(0.999878 0.0068188 0)
(1.00578 0.00333857 0)
(0.998177 0.00709039 0)
(0.999761 0.0113364 0)
(1.00717 0.00629792 0)
(1.00315 0.0127888 0)
(1.00474 0.0129819 0)
(1.01058 0.00972147 0)
(1.01155 0.0105055 0)
(1.01168 0.0069957 0)
(1.01121 0.00421046 0)
(1.00921 0.00470869 0)
(1.00801 0.0045797 0)
(1.0075 0.00446728 0)
(0.999741 0.00795081 0)
(1.00539 -0.0026954 0)
(1.00154 0.00620164 0)
(1.00455 0.00572147 0)
(1.00926 0.00323562 0)
(1.00001 -0.000518814 0)
(0.99994 0.00659427 0)
(1.00581 0.0035213 0)
(0.99846 0.00688482 0)
(0.999719 0.0113267 0)
(1.00718 0.00633727 0)
(1.00344 0.0122887 0)
(1.00452 0.0130016 0)
(1.01045 0.00934031 0)
(1.01135 0.0101928 0)
(1.01123 0.0074094 0)
(1.011 0.00432793 0)
(1.00926 0.00479467 0)
(1.00796 0.00513108 0)
(1.00767 0.00476904 0)
(0.999754 0.00766207 0)
(1.00529 -0.00233003 0)
(1.00167 0.00580535 0)
(1.00444 0.00592151 0)
(1.00902 0.00298403 0)
(1.00012 -2.28952e-05 0)
(1.00002 0.00639723 0)
(1.00582 0.00366698 0)
(0.998762 0.00671591 0)
(0.999682 0.0112888 0)
(1.0072 0.00639945 0)
(1.00376 0.011766 0)
(1.00429 0.0130171 0)
(1.01028 0.00903724 0)
(1.01121 0.00981688 0)
(1.01079 0.00780932 0)
(1.01075 0.00454442 0)
(1.00935 0.00479691 0)
(1.00796 0.00556834 0)
(1.00776 0.00521077 0)
(0.999776 0.00735901 0)
(1.00518 -0.00194435 0)
(1.00182 0.00539117 0)
(1.00431 0.00612747 0)
(1.00878 0.00273628 0)
(1.00023 0.000457172 0)
(1.00009 0.00623105 0)
(1.00583 0.00376768 0)
(0.99908 0.00657564 0)
(0.99965 0.01123 0)
(1.0072 0.00648577 0)
(1.00409 0.0112336 0)
(1.00407 0.013009 0)
(1.01007 0.00881563 0)
(1.01114 0.00939511 0)
(1.01038 0.00816848 0)
(1.01047 0.00485407 0)
(1.00945 0.00475847 0)
(1.00801 0.00585682 0)
(1.00777 0.0057364 0)
(0.999801 0.00704215 0)
(1.00505 -0.00154052 0)
(1.00197 0.00496287 0)
(1.00418 0.00633201 0)
(1.00854 0.00250927 0)
(1.00034 0.00089589 0)
(1.00017 0.00611925 0)
(1.00584 0.00382818 0)
(0.999411 0.00644983 0)
(0.999624 0.0111434 0)
(1.00719 0.00658872 0)
(1.00443 0.0107035 0)
(1.00387 0.0129662 0)
(1.00981 0.00867922 0)
(1.01111 0.00893744 0)
(1.01002 0.00846969 0)
(1.01014 0.0052527 0)
(1.00956 0.00472875 0)
(1.00814 0.00598698 0)
(1.00776 0.00623949 0)
(0.999828 0.00671269 0)
(1.0049 -0.00112143 0)
(1.00213 0.00452711 0)
(1.00405 0.00652724 0)
(1.00831 0.00230511 0)
(1.00046 0.0012903 0)
(1.00024 0.00605841 0)
(1.00584 0.00385332 0)
(0.999754 0.00633523 0)
(0.999605 0.0110445 0)
(1.00716 0.006695 0)
(1.0048 0.0101669 0)
(1.00369 0.0128826 0)
(1.0095 0.00863523 0)
(1.01112 0.00845561 0)
(1.00973 0.0086913 0)
(1.00978 0.00572452 0)
(1.00963 0.00475144 0)
(1.00834 0.0059889 0)
(1.00776 0.00663184 0)
(0.999855 0.00637093 0)
(1.00474 -0.000689645 0)
(1.00229 0.00408912 0)
(1.00391 0.00670702 0)
(1.00807 0.00213168 0)
(1.00058 0.00162291 0)
(1.00029 0.00605461 0)
(1.00584 0.00385721 0)
(1.00011 0.00622231 0)
(0.999595 0.0109452 0)
(1.0071 0.00680069 0)
(1.00518 0.00962781 0)
(1.00354 0.0127554 0)
(1.00914 0.00868102 0)
(1.01115 0.00797177 0)
(1.00952 0.00880126 0)
(1.00938 0.00623826 0)
(1.00965 0.00485098 0)
(1.00859 0.00591709 0)
(1.00782 0.0068724 0)
(0.999883 0.0060192 0)
(1.00456 -0.000252116 0)
(1.00244 0.00365305 0)
(1.00377 0.00686995 0)
(1.00782 0.0019963 0)
(1.00072 0.00188175 0)
(1.00033 0.00610516 0)
(1.00582 0.00385428 0)
(1.00047 0.00609231 0)
(0.999596 0.0108465 0)
(1.00701 0.00692409 0)
(1.00557 0.00909724 0)
(1.00344 0.0125769 0)
(1.00873 0.00881002 0)
(1.01118 0.00752354 0)
(1.0094 0.00878853 0)
(1.00897 0.00677047 0)
(1.0096 0.00503466 0)
(1.00886 0.00582361 0)
(1.00796 0.00696197 0)
(0.999909 0.00565899 0)
(1.00437 0.000186096 0)
(1.00258 0.00322978 0)
(1.00363 0.006994 0)
(1.00757 0.00191896 0)
(1.00086 0.00206944 0)
(1.00037 0.00619658 0)
(1.00579 0.00385531 0)
(1.00085 0.00593394 0)
(0.999615 0.0107468 0)
(1.00689 0.00707484 0)
(1.00597 0.0085822 0)
(1.00339 0.0123331 0)
(1.00828 0.00900662 0)
(1.01119 0.00714635 0)
(1.00937 0.00864619 0)
(1.00858 0.0072886 0)
(1.00947 0.00530239 0)
(1.00912 0.00574501 0)
(1.00817 0.00695299 0)
(0.999935 0.00529289 0)
(1.00416 0.000622217 0)
(1.00272 0.00282806 0)
(1.00349 0.00707195 0)
(1.0073 0.00190362 0)
(1.00103 0.00217428 0)
(1.0004 0.00631817 0)
(1.00573 0.00387794 0)
(1.00124 0.00574698 0)
(0.999655 0.0106303 0)
(1.00673 0.0072474 0)
(1.00635 0.00808846 0)
(1.0034 0.0120217 0)
(1.00779 0.00925331 0)
(1.01116 0.00686737 0)
(1.00944 0.00837364 0)
(1.00823 0.00775102 0)
(1.00926 0.00565249 0)
(1.00934 0.00568221 0)
(1.00845 0.00688549 0)
(0.999961 0.00492203 0)
(1.00394 0.00105605 0)
(1.00285 0.00245389 0)
(1.00335 0.00709681 0)
(1.00701 0.00195338 0)
(1.0012 0.00220858 0)
(1.00043 0.00644417 0)
(1.00566 0.00393595 0)
(1.00163 0.00552609 0)
(0.999722 0.0104855 0)
(1.00653 0.0074481 0)
(1.00672 0.00763217 0)
(1.00349 0.011636 0)
(1.00729 0.00951888 0)
(1.01106 0.00671509 0)
(1.00959 0.00800412 0)
(1.00794 0.00811809 0)
(1.00897 0.00609546 0)
(1.00951 0.00564972 0)
(1.00876 0.00677338 0)
(0.999986 0.00455108 0)
(1.0037 0.00147808 0)
(1.00297 0.00212158 0)
(1.00322 0.00704652 0)
(1.00671 0.00208252 0)
(1.00138 0.00219149 0)
(1.00046 0.0065581 0)
(1.00556 0.00405228 0)
(1.00203 0.00528024 0)
(0.999824 0.0102976 0)
(1.0063 0.00768459 0)
(1.00707 0.00723385 0)
(1.00365 0.0111726 0)
(1.0068 0.00976401 0)
(1.01089 0.00669253 0)
(1.00979 0.00757926 0)
(1.00776 0.00833507 0)
(1.00862 0.00660359 0)
(1.0096 0.00568894 0)
(1.0091 0.00660938 0)
(1.00001 0.00418123 0)
(1.00345 0.00187645 0)
(1.00306 0.00184532 0)
(1.00311 0.00692397 0)
(1.00639 0.00228185 0)
(1.00157 0.0021338 0)
(1.00051 0.00663765 0)
(1.00543 0.00422895 0)
(1.00243 0.00503527 0)
(0.99997 0.010062 0)
(1.00603 0.00793769 0)
(1.00736 0.00691356 0)
(1.00389 0.0106518 0)
(1.00633 0.00996034 0)
(1.01063 0.00679256 0)
(1.01003 0.00715968 0)
(1.0077 0.0083799 0)
(1.00825 0.00711533 0)
(1.00957 0.005846 0)
(1.00943 0.00640853 0)
(1.00003 0.00381824 0)
(1.00319 0.00224857 0)
(1.00314 0.00162401 0)
(1.00301 0.00672014 0)
(1.00606 0.00254425 0)
(1.00175 0.00206303 0)
(1.00057 0.00666038 0)
(1.00528 0.00446139 0)
(1.00281 0.00481407 0)
(1.00016 0.00977734 0)
(1.00575 0.00818255 0)
(1.0076 0.00668668 0)
(1.0042 0.0100983 0)
(1.00592 0.0100784 0)
(1.01028 0.00698318 0)
(1.01025 0.00679542 0)
(1.00777 0.00826247 0)
(1.0079 0.0075604 0)
(1.00943 0.00612985 0)
(1.00972 0.00623886 0)
(1.00006 0.00346041 0)
(1.00292 0.00258435 0)
(1.00319 0.00147428 0)
(1.00292 0.00643424 0)
(1.00572 0.00285156 0)
(1.00192 0.001998 0)
(1.00066 0.00661074 0)
(1.0051 0.00473726 0)
(1.00317 0.00462999 0)
(1.00041 0.00943211 0)
(1.00546 0.00840146 0)
(1.00777 0.00655685 0)
(1.00455 0.00953971 0)
(1.00558 0.0101167 0)
(1.00986 0.00724 0)
(1.01043 0.00652078 0)
(1.00794 0.00801472 0)
(1.00761 0.00788375 0)
(1.00918 0.00649017 0)
(1.00992 0.00616929 0)
(1.00008 0.0031228 0)
(1.00264 0.00286785 0)
(1.00321 0.00139648 0)
(1.00286 0.00608214 0)
(1.00537 0.00317861 0)
(1.00207 0.00195098 0)
(1.00078 0.00646096 0)
(1.00491 0.00502789 0)
(1.0035 0.00451608 0)
(1.0007 0.00905187 0)
(1.00518 0.00856769 0)
(1.00786 0.00650234 0)
(1.00495 0.00898069 0)
(1.00533 0.0100582 0)
(1.00938 0.00752565 0)
(1.01053 0.00635166 0)
(1.00821 0.00768564 0)
(1.00742 0.00807565 0)
(1.00886 0.00686677 0)
(1.00999 0.00623158 0)
(1.0001 0.00279604 0)
(1.00237 0.00311243 0)
(1.00319 0.00137909 0)
(1.00281 0.00568188 0)
(1.00502 0.00349746 0)
(1.00219 0.00198101 0)
(1.00092 0.0062515 0)
(1.00472 0.00530243 0)
(1.00379 0.00448714 0)
(1.00102 0.00865572 0)
(1.00491 0.00866912 0)
(1.00789 0.00651292 0)
(1.00535 0.00844768 0)
(1.00517 0.00990232 0)
(1.00887 0.00780673 0)
(1.01054 0.00629469 0)
(1.00853 0.00731377 0)
(1.00735 0.00812654 0)
(1.00853 0.00719965 0)
(1.00993 0.00638517 0)
(1.00012 0.00248719 0)
(1.00209 0.00330255 0)
(1.00313 0.00142989 0)
(1.00278 0.0052471 0)
(1.00468 0.00379168 0)
(1.00228 0.00211904 0)
(1.00108 0.00600536 0)
(1.00454 0.00552269 0)
(1.00403 0.00453537 0)
(1.00138 0.00825823 0)
(1.00468 0.00869803 0)
(1.00784 0.00656401 0)
(1.00575 0.00795414 0)
(1.00512 0.00965335 0)
(1.00836 0.0080454 0)
(1.01044 0.00634299 0)
(1.00887 0.0069456 0)
(1.00739 0.00803498 0)
(1.00822 0.00746533 0)
(1.00977 0.00657779 0)
(1.00014 0.00221111 0)
(1.00182 0.00342235 0)
(1.00304 0.00153877 0)
(1.00276 0.00480052 0)
(1.00436 0.00403932 0)
(1.00233 0.00234648 0)
(1.00125 0.00574034 0)
(1.00437 0.00567162 0)
(1.00423 0.00462957 0)
(1.00174 0.00786768 0)
(1.00448 0.0086478 0)
(1.00773 0.00663712 0)
(1.00612 0.00751143 0)
(1.00516 0.0093236 0)
(1.00788 0.00821473 0)
(1.01023 0.00647718 0)
(1.00917 0.0066431 0)
(1.00756 0.00782337 0)
(1.00796 0.00765374 0)
(1.00954 0.00677925 0)
(1.00016 0.00195278 0)
(1.00156 0.0034853 0)
(1.00292 0.00169614 0)
(1.00274 0.00436932 0)
(1.00408 0.00421308 0)
(1.00234 0.00263327 0)
(1.00141 0.00549992 0)
(1.00421 0.00574189 0)
(1.00438 0.00473569 0)
(1.0021 0.00751345 0)
(1.00432 0.00855175 0)
(1.00756 0.00673776 0)
(1.00646 0.00714244 0)
(1.00528 0.00893972 0)
(1.00746 0.00830727 0)
(1.00994 0.00666343 0)
(1.00941 0.00644183 0)
(1.00782 0.0075265 0)
(1.00779 0.0077321 0)
(1.00926 0.00697161 0)
(1.00018 0.00172725 0)
(1.00132 0.00348372 0)
(1.00276 0.00188565 0)
(1.00273 0.00396295 0)
(1.00383 0.00430142 0)
(1.00233 0.00295716 0)
(1.00156 0.0053013 0)
(1.00408 0.00574632 0)
(1.0045 0.00484636 0)
(1.00246 0.00721387 0)
(1.00421 0.00842024 0)
(1.00736 0.00684005 0)
(1.00673 0.00684492 0)
(1.00546 0.0085189 0)
(1.00712 0.00831199 0)
(1.00959 0.00685719 0)
(1.00955 0.00634137 0)
(1.00813 0.00720325 0)
(1.00773 0.00768389 0)
(1.00897 0.00714055 0)
(1.00019 0.00153265 0)
(1.00109 0.00341042 0)
(1.00258 0.00210284 0)
(1.00271 0.00361198 0)
(1.00362 0.00427908 0)
(1.00229 0.00329137 0)
(1.00169 0.00517799 0)
(1.00397 0.00572348 0)
(1.00459 0.00494482 0)
(1.0028 0.00694291 0)
(1.00413 0.00824637 0)
(1.00712 0.00692885 0)
(1.00694 0.00662544 0)
(1.0057 0.00809052 0)
(1.00687 0.00822699 0)
(1.00922 0.00702373 0)
(1.00959 0.00632433 0)
(1.00844 0.00691143 0)
(1.00778 0.00752521 0)
(1.0087 0.007251 0)
(1.0002 0.00136717 0)
(1.0009 0.00328088 0)
(1.00238 0.00232328 0)
(1.00268 0.00333829 0)
(1.00346 0.00416367 0)
(1.00225 0.00360112 0)
(1.0018 0.00514062 0)
(1.00387 0.00569013 0)
(1.00466 0.00501227 0)
(1.00313 0.00668954 0)
(1.00409 0.00804314 0)
(1.00686 0.00700298 0)
(1.00707 0.00647307 0)
(1.00595 0.00767408 0)
(1.00671 0.0080561 0)
(1.00886 0.00713626 0)
(1.00954 0.00636444 0)
(1.00871 0.00668447 0)
(1.00791 0.00730402 0)
(1.0085 0.00727543 0)
(1.00021 0.00123109 0)
(1.00073 0.00310618 0)
(1.00217 0.00252598 0)
(1.00262 0.00314742 0)
(1.00334 0.00398954 0)
(1.00223 0.00386129 0)
(1.00188 0.00517087 0)
(1.00377 0.00566774 0)
(1.0047 0.00505914 0)
(1.00344 0.00644706 0)
(1.0041 0.00780677 0)
(1.0066 0.00705549 0)
(1.00713 0.00638274 0)
(1.00621 0.00729891 0)
(1.00663 0.00782567 0)
(1.00852 0.00718418 0)
(1.00942 0.00642679 0)
(1.00892 0.00652342 0)
(1.0081 0.00706488 0)
(1.00839 0.00720854 0)
(1.00021 0.00112317 0)
(1.00059 0.00289694 0)
(1.00196 0.00269524 0)
(1.00254 0.00305352 0)
(1.00326 0.00377894 0)
(1.00223 0.00403491 0)
(1.00194 0.00523528 0)
(1.00367 0.00567211 0)
(1.00473 0.0051052 0)
(1.00373 0.00621918 0)
(1.00415 0.00754356 0)
(1.00635 0.00707111 0)
(1.00713 0.00634242 0)
(1.00644 0.00697784 0)
(1.00662 0.00755863 0)
(1.00824 0.00716211 0)
(1.00925 0.00647353 0)
(1.00905 0.00640733 0)
(1.0083 0.00683161 0)
(1.00835 0.00707402 0)
(1.00022 0.00103645 0)
(1.00047 0.00268289 0)
(1.00177 0.00281136 0)
(1.00244 0.00304107 0)
(1.0032 0.00357404 0)
(1.00226 0.00409605 0)
(1.002 0.00530024 0)
(1.00356 0.00569988 0)
(1.00472 0.00515227 0)
(1.004 0.00600765 0)
(1.00424 0.00725853 0)
(1.00614 0.00703589 0)
(1.00707 0.00632807 0)
(1.00664 0.00671525 0)
(1.00667 0.00728096 0)
(1.00801 0.00708434 0)
(1.00905 0.00649334 0)
(1.00912 0.00632306 0)
(1.0085 0.00661903 0)
(1.00839 0.00690388 0)
(1.00022 0.000963962 0)
(1.00039 0.00247958 0)
(1.00161 0.00287113 0)
(1.00232 0.00308148 0)
(1.00314 0.00341469 0)
(1.00233 0.00406073 0)
(1.00208 0.00532959 0)
(1.00346 0.00574325 0)
(1.00468 0.0052046 0)
(1.00423 0.00582473 0)
(1.00436 0.00695589 0)
(1.00596 0.00694758 0)
(1.00697 0.00631553 0)
(1.00679 0.00650955 0)
(1.00674 0.00701041 0)
(1.00784 0.00696643 0)
(1.00885 0.00648627 0)
(1.00913 0.00625618 0)
(1.00867 0.00642622 0)
(1.00846 0.00670834 0)
(1.00022 0.000905156 0)
(1.00032 0.00229511 0)
(1.00147 0.00287622 0)
(1.00219 0.00314252 0)
(1.00308 0.00333335 0)
(1.00242 0.00397479 0)
(1.00218 0.00528452 0)
(1.00336 0.00577255 0)
(1.00462 0.00527461 0)
(1.00442 0.00567948 0)
(1.0045 0.0066537 0)
(1.00584 0.00681051 0)
(1.00686 0.00628988 0)
(1.00689 0.00634775 0)
(1.00683 0.0067539 0)
(1.00772 0.00681129 0)
(1.00866 0.00644905 0)
(1.00909 0.00619877 0)
(1.00879 0.00625478 0)
(1.00857 0.00649842 0)
(1.00022 0.000854283 0)
(1.00027 0.00213753 0)
(1.00136 0.00284268 0)
(1.00206 0.00319437 0)
(1.00301 0.00332672 0)
(1.00252 0.00387915 0)
(1.0023 0.00516205 0)
(1.00328 0.00575786 0)
(1.00454 0.00534857 0)
(1.00456 0.00556809 0)
(1.00465 0.00636712 0)
(1.00575 0.0066317 0)
(1.00674 0.00623839 0)
(1.00695 0.00621146 0)
(1.00692 0.00652092 0)
(1.00765 0.00663299 0)
(1.0085 0.00637725 0)
(1.00901 0.00614839 0)
(1.00887 0.00611205 0)
(1.00868 0.00628874 0)
(1.00022 0.000810397 0)
(1.00024 0.00200807 0)
(1.00127 0.00278025 0)
(1.00194 0.00322626 0)
(1.00293 0.00335908 0)
(1.00261 0.00380441 0)
(1.00244 0.00498864 0)
(1.00324 0.00569666 0)
(1.00444 0.00540109 0)
(1.00466 0.0054994 0)
(1.00479 0.00610954 0)
(1.00571 0.00642271 0)
(1.00663 0.00614841 0)
(1.00698 0.00608086 0)
(1.00701 0.00630837 0)
(1.00761 0.00644831 0)
(1.00836 0.00626525 0)
(1.00891 0.00608135 0)
(1.0089 0.00599372 0)
(1.00878 0.00608585 0)
(1.00022 0.000770316 0)
(1.00021 0.00190481 0)
(1.0012 0.00270545 0)
(1.00184 0.00323107 0)
(1.00284 0.00339422 0)
(1.00268 0.00376805 0)
(1.00259 0.00479975 0)
(1.00323 0.00557755 0)
(1.00435 0.00541608 0)
(1.00471 0.00545441 0)
(1.00491 0.0058942 0)
(1.00569 0.00620603 0)
(1.00654 0.00602812 0)
(1.00699 0.00594919 0)
(1.00708 0.00610445 0)
(1.00759 0.00626365 0)
(1.00825 0.00613271 0)
(1.00882 0.00598444 0)
(1.00887 0.00589395 0)
(1.00884 0.00590581 0)
(1.00021 0.000733852 0)
(1.00018 0.00182239 0)
(1.00115 0.00262374 0)
(1.00175 0.00320732 0)
(1.00275 0.00341908 0)
(1.00272 0.00376085 0)
(1.00274 0.0046286 0)
(1.00325 0.00540487 0)
(1.00427 0.00539112 0)
(1.00473 0.00540611 0)
(1.00499 0.00571555 0)
(1.00568 0.00599505 0)
(1.00646 0.00588581 0)
(1.00697 0.00581393 0)
(1.00714 0.00590288 0)
(1.00759 0.00606663 0)
(1.00816 0.00599349 0)
(1.00873 0.00585967 0)
(1.00883 0.00578623 0)
(1.00886 0.0057541 0)
(1.00021 0.000701755 0)
(1.00016 0.00175027 0)
(1.0011 0.00254248 0)
(1.00167 0.00315862 0)
(1.00266 0.00342848 0)
(1.00275 0.0037626 0)
(1.00286 0.00448618 0)
(1.0033 0.00521342 0)
(1.00422 0.00531377 0)
(1.00473 0.00534732 0)
(1.00505 0.0055599 0)
(1.00568 0.00579817 0)
(1.00638 0.00572967 0)
(1.00694 0.00567315 0)
(1.00718 0.00571056 0)
(1.0076 0.00585087 0)
(1.00808 0.00583779 0)
(1.00864 0.00572271 0)
(1.00878 0.0056513 0)
(1.00884 0.00562436 0)
(1.00021 0.000672996 0)
(1.00015 0.00168402 0)
(1.00107 0.0024626 0)
(1.0016 0.00309602 0)
(1.00258 0.00341858 0)
(1.00276 0.00376208 0)
(1.00296 0.00436701 0)
(1.00335 0.00502982 0)
(1.00418 0.00518735 0)
(1.00471 0.0052653 0)
(1.00509 0.00541515 0)
(1.00567 0.00561582 0)
(1.00632 0.00556796 0)
(1.0069 0.00552271 0)
(1.00719 0.00552984 0)
(1.00762 0.00563128 0)
(1.00802 0.00565149 0)
(1.00855 0.00558036 0)
(1.00873 0.005492 0)
(1.00879 0.0054918 0)
(1.00021 0.000646829 0)
(1.00014 0.00162199 0)
(1.00104 0.0023846 0)
(1.00154 0.00302758 0)
(1.00251 0.00338734 0)
(1.00276 0.00375021 0)
(1.00304 0.00426801 0)
(1.0034 0.00485997 0)
(1.00416 0.00504353 0)
(1.0047 0.00514899 0)
(1.0051 0.0052705 0)
(1.00565 0.00544113 0)
(1.00625 0.00540655 0)
(1.00684 0.00536413 0)
(1.00718 0.00535072 0)
(1.00762 0.00542171 0)
(1.00799 0.00543855 0)
(1.00847 0.00541762 0)
(1.00867 0.00531955 0)
(1.00874 0.00532658 0)
(1.00021 0.00062285 0)
(1.00013 0.00156133 0)
(1.00101 0.00230883 0)
(1.00149 0.00295657 0)
(1.00245 0.00333943 0)
(1.00275 0.00371914 0)
(1.0031 0.00417897 0)
(1.00344 0.00469814 0)
(1.00414 0.00489727 0)
(1.00468 0.00500795 0)
(1.00511 0.00511424 0)
(1.00562 0.00526714 0)
(1.00618 0.00524627 0)
(1.00678 0.00520667 0)
(1.00716 0.00516878 0)
(1.00761 0.00521948 0)
(1.00796 0.00521974 0)
(1.0084 0.00522707 0)
(1.0086 0.00514356 0)
(1.0087 0.00512971 0)
(1.00021 0.000601468 0)
(1.00012 0.0015026 0)
(1.00099 0.00223071 0)
(1.00144 0.00288188 0)
(1.00239 0.00328229 0)
(1.00273 0.00367086 0)
(1.00314 0.00408761 0)
(1.00347 0.00455018 0)
(1.00412 0.00474782 0)
(1.00465 0.00486259 0)