/*--------------------------------*- C++ -*----------------------------------*\
| =========                 |                                                 |
| \\      /  F ield         | OpenFOAM: The Open Source CFD Toolbox           |
|  \\    /   O peration     | Version:  3.0.1                                 |
|   \\  /    A nd           | Web:      www.OpenFOAM.org                      |
|    \\/     M anipulation  |                                                 |
\*---------------------------------------------------------------------------*/
FoamFile
{
    version     2.0;
    format      ascii;
    class       volScalarField;
    location    "1.3";
    object      p;
}
// * * * * * * * * * * * * * * * * * * * * * * * * * * * * * * * * * * * * * //

dimensions      [0 2 -2 0 0 0 0];

internalField   nonuniform List<scalar> 
9600
(
6.27503e-11
-0.000142446
-0.000657387
-0.000334159
0.000757861
0.0003789
-0.000888209
-0.000659925
-0.00113328
-0.000498868
-0.000335023
0.000888186
0.000391181
0.00090189
0.00111175
0.0025625
0.00321982
0.00482916
0.00723797
0.012001
2.07527e-06
-0.000150573
-0.000655914
-0.000326502
0.00075134
0.00036596
-0.000869591
-0.000663023
-0.00112732
-0.000494317
-0.00033942
0.000885365
0.000392742
0.000901107
0.0011263
0.00255146
0.00325719
0.00480218
0.00743054
0.0115963
3.47145e-06
-0.000159675
-0.000651732
-0.000318878
0.000739207
0.000351321
-0.000851681
-0.000668201
-0.0011159
-0.000489541
-0.000343418
0.000879711
0.000397252
0.000902309
0.00113637
0.00254065
0.00328265
0.00476742
0.00748304
0.0110526
3.44544e-06
-0.000167939
-0.000645852
-0.000313536
0.000725698
0.000336084
-0.000837921
-0.000673747
-0.00109934
-0.000483513
-0.000346772
0.000870315
0.000403992
0.000903618
0.00114393
0.00252789
0.00330573
0.00472231
0.00749727
0.0105874
2.34709e-06
-0.000175194
-0.000638406
-0.000310105
0.000711278
0.000319882
-0.000825982
-0.000679096
-0.00107803
-0.000477829
-0.000351233
0.000857498
0.000411883
0.00090291
0.0011509
0.00251092
0.00333006
0.00466807
0.00748845
0.0101716
4.49586e-07
-0.000181323
-0.000629559
-0.000308706
0.0006964
0.000303512
-0.00081482
-0.000684394
-0.00105338
-0.000473465
-0.000356924
0.000842463
0.000420275
0.000899926
0.00115914
0.00249091
0.00335501
0.00460803
0.00745442
0.00978312
-2.0212e-06
-0.000186415
-0.000619774
-0.00030895
0.000681923
0.000287172
-0.0008041
-0.000689675
-0.00102646
-0.000470173
-0.000363456
0.00082628
0.00042898
0.000895014
0.00116976
0.00246811
0.00338417
0.00454424
0.00739081
0.0094163
-4.82636e-06
-0.000190795
-0.000609409
-0.000310161
0.000668068
0.000270633
-0.000793426
-0.000694988
-0.000997859
-0.000467488
-0.00037046
0.000809548
0.000438009
0.00088818
0.00118244
0.00244259
0.00340472
0.00447792
0.00729588
0.00906819
-7.7642e-06
-0.000194856
-0.000598627
-0.000311812
0.000654586
0.000253714
-0.00078249
-0.000700479
-0.000967968
-0.000465071
-0.000377719
0.000792426
0.000447392
0.000879293
0.00119645
0.0024149
0.00341885
0.00440985
0.00717007
0.00873563
-1.0702e-05
-0.000198936
-0.000587477
-0.000313609
0.000641171
0.000236369
-0.000771117
-0.000706295
-0.000937068
-0.000462731
-0.000385156
0.00077491
0.000457178
0.000868271
0.00121091
0.00238588
0.00342525
0.00434034
0.00701513
0.00841491
-1.35705e-05
-0.000203279
-0.000575969
-0.000315402
0.000627598
0.000218631
-0.000759183
-0.000712568
-0.000905423
-0.000460325
-0.000392877
0.000757031
0.000467285
0.000855172
0.00122486
0.00235625
0.0034223
0.00426943
0.00683333
0.00810206
-1.63416e-05
-0.000208035
-0.000564109
-0.00031711
0.000613721
0.00020055
-0.000746648
-0.0007194
-0.000873311
-0.000457666
-0.000401003
0.000738835
0.000477425
0.00084036
0.00123741
0.00232629
0.00340873
0.00419674
0.00662723
0.00779139
-1.90039e-05
-0.000213293
-0.000551919
-0.000318688
0.000599442
0.000182163
-0.000733534
-0.000726797
-0.000841007
-0.000454556
-0.000409708
0.000720401
0.000487196
0.000824324
0.00124778
0.002296
0.00338401
0.00412057
0.00640063
0.00747936
-2.15493e-05
-0.000219101
-0.000539439
-0.000320107
0.000584684
0.000163503
-0.000719888
-0.000734688
-0.000808791
-0.000450797
-0.000419245
0.000701942
0.000496203
0.00080737
0.00125534
0.00226535
0.00334826
0.00403801
0.00615829
0.00716526
-2.39669e-05
-0.000225491
-0.000526719
-0.00032134
0.000569378
0.000144596
-0.000705779
-0.000742953
-0.000776981
-0.000446123
-0.000429921
0.000683718
0.000504084
0.000789684
0.00125971
0.00223354
0.00330216
0.00394661
0.00590377
0.00684887
-2.62409e-05
-0.00023249
-0.000513818
-0.000322354
0.000553465
0.000125474
-0.000691295
-0.00075142
-0.000745943
-0.000440203
-0.000442028
0.000665907
0.000510571
0.000771265
0.00126072
0.00219921
0.00324677
0.00384499
0.0056388
0.00653028
-2.83511e-05
-0.000240126
-0.000500801
-0.000323112
0.000536882
0.000106216
-0.000676572
-0.000759887
-0.000716076
-0.000432687
-0.000455813
0.000648625
0.000515542
0.000751778
0.00125855
0.00216069
0.00318266
0.00373258
0.00536471
0.00620988
-3.0271e-05
-0.000248431
-0.000487742
-0.000323567
0.000519566
8.69441e-05
-0.000661782
-0.000768122
-0.000687815
-0.000423294
-0.000471493
0.000631914
0.000519017
0.000730686
0.00125394
0.00211609
0.00310926
0.00361073
0.00508234
0.00588753
-3.19687e-05
-0.000257431
-0.000474722
-0.000323676
0.000501445
6.78144e-05
-0.000647115
-0.000775843
-0.000661613
-0.000411811
-0.000489195
0.000615595
0.000521323
0.000707001
0.00124756
0.00206431
0.00302561
0.0034815
0.00479232
0.00556282
-3.34073e-05
-0.000267158
-0.000461837
-0.000323365
0.00048243
4.90049e-05
-0.000632789
-0.000782742
-0.000637909
-0.000398074
-0.000508995
0.000599204
0.000523098
0.000679306
0.00123964
0.00200545
0.00293067
0.00334751
0.00449582
0.00523467
-3.45458e-05
-0.000277649
-0.000449212
-0.000322528
0.000462431
3.07154e-05
-0.000619083
-0.000788531
-0.000617071
-0.000382049
-0.000530962
0.000582022
0.000525265
0.00064629
0.00122992
0.0019404
0.00282239
0.00320976
0.00419571
0.00490097
-3.53398e-05
-0.000288927
-0.000436978
-0.000321085
0.000441344
1.31901e-05
-0.000606308
-0.000792992
-0.000599381
-0.000363879
-0.000556015
0.000563061
0.000528985
0.000606978
0.00121728
0.00187079
0.00269846
0.0030686
0.00389609
0.00455968
-3.57373e-05
-0.00030101
-0.000425305
-0.000318933
0.000419025
-3.28887e-06
-0.00059476
-0.000795988
-0.000585039
-0.00034388
-0.000578778
0.000541056
0.000534942
0.000560967
0.00119969
0.00179896
0.00255795
0.00292215
0.00360152
0.00421043
-3.56829e-05
-0.000313908
-0.000414406
-0.000315869
0.00039533
-1.84362e-05
-0.000585365
-0.000797458
-0.000574054
-0.000322602
-0.000600218
0.000514526
0.000543135
0.000508611
0.00117445
0.00172716
0.00240152
0.0027672
0.00331619
0.00385469
-3.51279e-05
-0.000327601
-0.000404526
-0.000311674
0.000370095
-3.2016e-05
-0.000576962
-0.00079746
-0.000566228
-0.000300799
-0.000619567
0.000482297
0.000553241
0.000450857
0.00113843
0.00165659
0.00223169
0.00260057
0.00304328
0.0034956
-3.40229e-05
-0.00034205
-0.000395949
-0.00030613
0.000343146
-4.38692e-05
-0.000570098
-0.000796294
-0.000561074
-0.000279415
-0.000636015
0.000443729
0.000564506
0.000389024
0.00108871
0.0015874
0.00205235
0.00241931
0.00278452
0.00313858
-3.23268e-05
-0.000357198
-0.000389016
-0.000298966
0.00031438
-5.38927e-05
-0.000564716
-0.000794462
-0.000557862
-0.000259522
-0.000649226
0.000398614
0.000575624
0.000324668
0.00102317
0.00151896
0.00186782
0.00222084
0.00253963
0.00279151
-3.00094e-05
-0.000372939
-0.000384127
-0.00028997
0.000283776
-6.2073e-05
-0.000560547
-0.000792566
-0.000555806
-0.000242067
-0.000659274
0.000347156
0.000584822
0.000259229
0.000940393
0.00144963
0.00168308
0.00200372
0.00230545
0.00246384
-2.70625e-05
-0.000389081
-0.000381744
-0.000279067
0.000251436
-6.85643e-05
-0.000556973
-0.000791464
-0.000554196
-0.000227693
-0.000660095
0.000290126
0.000590452
0.000193831
0.000839674
0.00137688
0.00150361
0.00176861
0.00207534
0.00216389
-2.35036e-05
-0.000405382
-0.000382349
-0.000266198
0.000217567
-7.36968e-05
-0.0005531
-0.000792254
-0.000552838
-0.000216627
-0.000665006
0.000228171
0.000590944
0.000129484
0.000721475
0.0012976
0.00133429
0.00151918
0.00183956
0.00189526
-1.93762e-05
-0.000421545
-0.000386419
-0.000251354
0.000182554
-7.80642e-05
-0.000547831
-0.000795699
-0.000552148
-0.000208455
-0.000669954
0.000161137
0.000584775
6.73636e-05
0.000587378
0.00120838
0.001178
0.00126206
0.00158836
0.00165289
-1.479e-05
-0.000437122
-0.000394407
-0.000234756
0.000147049
-8.2592e-05
-0.000539947
-0.000801957
-0.000553023
-0.00020255
-0.000675906
8.83594e-05
0.000570818
8.73904e-06
0.000439465
0.00110606
0.00103524
0.00100531
0.00131673
0.0014247
-9.88166e-06
-0.000451623
-0.000406695
-0.000216797
0.000111887
-8.83559e-05
-0.000528636
-0.000810753
-0.000556721
-0.000198392
-0.000683202
9.09378e-06
0.000547987
-4.51898e-05
0.000280219
0.000987849
0.000904513
0.000756524
0.00102678
0.00119511
-4.83079e-06
-0.000464576
-0.000423491
-0.000198211
7.80924e-05
-9.65007e-05
-0.000513577
-0.000821301
-0.000564949
-0.000195812
-0.000691894
-7.74572e-05
0.000515063
-9.26105e-05
0.000112842
0.000850834
0.000782782
0.000521228
0.000725174
0.000951353
1.16505e-07
-0.000475476
-0.000444766
-0.000180004
4.67558e-05
-0.000107833
-0.000494708
-0.000832498
-0.000579428
-0.00019529
-0.000701426
-0.000171875
0.000470419
-0.000131501
-5.83699e-05
0.000692252
0.00066601
0.000303075
0.000419173
0.000687924
4.69592e-06
-0.00048382
-0.00047027
-0.000163322
1.88038e-05
-0.000122656
-0.000472717
-0.000842839
-0.000601384
-0.000198036
-0.000710825
-0.000273866
0.000412184
-0.000161369
-0.000228317
0.000510535
0.000549215
0.000104827
0.000115066
0.000405312
8.58725e-06
-0.000489129
-0.000499363
-0.000149583
-5.2332e-06
-0.000141071
-0.000448658
-0.000850883
-0.00063181
-0.000205793
-0.000718708
-0.000382187
0.000338601
-0.000183585
-0.000391443
0.000305943
0.00042594
-7.16919e-05
-0.000180902
0.000106342
1.14172e-05
-0.000490942
-0.000531101
-0.000140301
-2.51983e-05
-0.000162738
-0.000423865
-0.000855375
-0.000671169
-0.000220698
-0.000723406
-0.000494417
0.000247793
-0.000201204
-0.000542108
8.10304e-05
0.00028853
-0.000226489
-0.000461127
-0.000205129
1.28265e-05
-0.000488944
-0.000564378
-0.000136814
-4.12244e-05
-0.000187163
-0.000392432
-0.000855248
-0.000719046
-0.000245124
-0.000723525
-0.000606863
0.0001382
-0.000219339
-0.000675567
-0.000158901
0.000129602
-0.000362832
-0.000717047
-0.000523237
1.24775e-05
-0.000482909
-0.000597866
-0.000140329
-5.37239e-05
-0.000214207
-0.00037258
-0.000849857
-0.000773951
-0.000281242
-0.000719398
-0.000714665
1.0134e-05
-0.000244786
-0.000789525
-0.000406017
-5.58057e-05
-0.000488164
-0.000941765
-0.0008386
1.00626e-05
-0.000472592
-0.000630167
-0.000151931
-6.32858e-05
-0.000243765
-0.000358429
-0.000838692
-0.000832807
-0.0003308
-0.000713107
-0.000813431
-0.000134069
-0.000284018
-0.000884963
-0.000651232
-0.000268563
-0.000613182
-0.00113284
-0.00113873
5.33904e-06
-0.000457891
-0.000659857
-0.000172278
-7.08671e-05
-0.000275256
-0.000352563
-0.00082201
-0.000891694
-0.000394359
-0.000708519
-0.00090057
-0.00029035
-0.000341155
-0.00096513
-0.000886757
-0.000505522
-0.000748937
-0.0012939
-0.00141153
-1.84322e-06
-0.000438813
-0.000685459
-0.000201535
-7.78553e-05
-0.000307521
-0.000357461
-0.000801592
-0.000946552
-0.000471084
-0.000710566
-0.0009756
-0.00045353
-0.000418291
-0.00103441
-0.00110678
-0.000760724
-0.000903568
-0.00143304
-0.00164867
-1.15798e-05
-0.000417594
-0.000705683
-0.000239465
-8.58823e-05
-0.000339155
-0.000374669
-0.000777779
-0.000994049
-0.000558647
-0.000723619
-0.00103966
-0.000618633
-0.000516303
-0.00109765
-0.00130665
-0.00102675
-0.00108153
-0.00156129
-0.00184794
-2.39509e-05
-0.000394812
-0.000719391
-0.000285232
-9.70009e-05
-0.000368401
-0.000404801
-0.000762077
-0.0010323
-0.000652544
-0.000749944
-0.00109542
-0.000781553
-0.000634386
-0.00116022
-0.00148308
-0.00129493
-0.00128399
-0.00169053
-0.00201351
-3.88887e-05
-0.000371036
-0.000725568
-0.000337768
-0.000113709
-0.000394016
-0.000447415
-0.000755548
-0.00106055
-0.000746867
-0.000789268
-0.00114698
-0.000939788
-0.000770207
-0.00122794
-0.0016358
-0.00155587
-0.00150816
-0.00183075
-0.00215462
-5.61422e-05
-0.000347609
-0.000723499
-0.000395887
-0.00013907
-0.000415264
-0.000498721
-0.00076204
-0.00108099
-0.000837324
-0.000840167
-0.00119729
-0.00109189
-0.000920951
-0.00130549
-0.00176752
-0.00180133
-0.00174729
-0.00198831
-0.00228383
-7.52736e-05
-0.000325989
-0.000713123
-0.000458255
-0.000175953
-0.000432873
-0.000552765
-0.000783048
-0.0011004
-0.000922567
-0.00089995
-0.00124753
-0.00123697
-0.00108419
-0.00139644
-0.00188231
-0.00202515
-0.0019921
-0.00216436
-0.00241373
-9.5652e-05
-0.000307514
-0.000695205
-0.000518031
-0.000226043
-0.000449368
-0.000604982
-0.000818326
-0.0011247
-0.00100264
-0.00096549
-0.0012984
-0.00137353
-0.00125687
-0.00150437
-0.00198613
-0.0022237
-0.0022336
-0.00235496
-0.002553
-0.000116573
-0.000293299
-0.000671203
-0.000574501
-0.000290271
-0.00046853
-0.000651424
-0.000864963
-0.0011582
-0.0010795
-0.00103488
-0.00134968
-0.00150042
-0.00143422
-0.00163121
-0.00208674
-0.00239641
-0.0024641
-0.00255345
-0.00270364
-0.000137319
-0.000284046
-0.000643502
-0.000625189
-0.000367882
-0.000495792
-0.000690978
-0.000915894
-0.00120201
-0.00115818
-0.00110811
-0.00140057
-0.00161638
-0.00161128
-0.00177582
-0.00219224
-0.00254762
-0.00267754
-0.00275309
-0.00286143
-0.000157337
-0.000280063
-0.00061517
-0.00066801
-0.000455877
-0.000536474
-0.000724686
-0.000964491
-0.0012551
-0.00124371
-0.00118697
-0.00145145
-0.00171898
-0.00178316
-0.0019348
-0.00230872
-0.00268464
-0.00287112
-0.00294833
-0.00302081
-0.000176282
-0.000281283
-0.000589342
-0.000701739
-0.000549624
-0.000593942
-0.000756929
-0.00100709
-0.00131323
-0.00133722
-0.00127574
-0.00150487
-0.00180697
-0.00194383
-0.00210259
-0.00243872
-0.00281512
-0.00304557
-0.00313461
-0.00317785
-0.000193971
-0.000287278
-0.000569005
-0.000726773
-0.000643015
-0.000668647
-0.000796038
-0.00104345
-0.00136886
-0.00143691
-0.00137807
-0.00156527
-0.00188297
-0.00208682
-0.00227166
-0.00258173
-0.00294566
-0.00320528
-0.00331025
-0.00333044
-0.000210429
-0.000297379
-0.000556279
-0.000745426
-0.000731019
-0.000758703
-0.000848439
-0.00107528
-0.00141647
-0.00153901
-0.00149467
-0.00163904
-0.00195172
-0.00220888
-0.00243262
-0.00273274
-0.0030802
-0.00335548
-0.0034766
-0.00347809
-0.000226109
-0.0003109
-0.000552263
-0.000760814
-0.000810199
-0.000858264
-0.000917213
-0.00110931
-0.00145513
-0.00163485
-0.00162227
-0.00173147
-0.00202025
-0.00231322
-0.00257718
-0.00288395
-0.0032195
-0.0034997
-0.00363562
-0.00362228
-0.000241779
-0.000327102
-0.000557528
-0.00077429
-0.000879133
-0.000959716
-0.00100216
-0.00115349
-0.00148709
-0.00171768
-0.00175481
-0.00184374
-0.0020976
-0.00240495
-0.00270256
-0.00302593
-0.00335948
-0.00364016
-0.00378779
-0.0037655
-0.00025833
-0.000345495
-0.000570827
-0.000793946
-0.00093854
-0.00105687
-0.00110127
-0.00121323
-0.00151716
-0.00178651
-0.00188189
-0.0019711
-0.00219097
-0.00249138
-0.00281175
-0.00315212
-0.00349303
-0.00377663
-0.00393242
-0.00390765
-0.000276627
-0.000365989
-0.000590729
-0.000819116
-0.000991331
-0.00114661
-0.001209
-0.00129095
-0.00155263
-0.00184307
-0.00199612
-0.00210585
-0.00230186
-0.00258209
-0.00290906
-0.00326262
-0.00361293
-0.00390507
-0.00406886
-0.00404561
-0.000297368
-0.000388593
-0.000615861
-0.000850897
-0.00104134
-0.0012279
-0.00131823
-0.00138492
-0.00160136
-0.00189069
-0.00209441
-0.00223755
-0.0024244
-0.00268377
-0.0030017
-0.00336053
-0.00371702
-0.00401945
-0.00419477
-0.00417596
-0.000321116
-0.000413578
-0.000644771
-0.000889432
-0.0010922
-0.00130121
-0.00142365
-0.00149144
-0.00166728
-0.00193704
-0.00217675
-0.00235906
-0.00255153
-0.00279562
-0.00309703
-0.00344966
-0.00380819
-0.00411659
-0.00430572
-0.00429542
-0.000348258
-0.000441448
-0.000676532
-0.000933953
-0.00114701
-0.00136861
-0.00152212
-0.0016051
-0.00174956
-0.0019905
-0.00224659
-0.00246534
-0.002675
-0.00291193
-0.00319805
-0.00353589
-0.00388947
-0.00419891
-0.00439812
-0.00440043
-0.000379034
-0.000472814
-0.000710865
-0.000982983
-0.001207
-0.001434
-0.00161269
-0.00171988
-0.0018458
-0.00205532
-0.00231019
-0.00255503
-0.00278764
-0.00302713
-0.00330148
-0.00362275
-0.00396426
-0.00426989
-0.00447306
-0.00448773
-0.00041357
-0.000508248
-0.000747874
-0.00103515
-0.00127234
-0.00150134
-0.00169704
-0.00183
-0.00195192
-0.00213282
-0.00237494
-0.00263233
-0.00288443
-0.00313405
-0.00340198
-0.00370852
-0.00403476
-0.00433158
-0.00453402
-0.00455679
-0.000451866
-0.000548216
-0.000788197
-0.00108904
-0.00134224
-0.00157326
-0.00177815
-0.00193346
-0.00206176
-0.00222166
-0.00244433
-0.00270191
-0.00296556
-0.00322644
-0.00349428
-0.00378862
-0.00409979
-0.00438399
-0.00458166
-0.0046086
-0.000493861
-0.00059289
-0.000832699
-0.00114425
-0.00141558
-0.00165056
-0.00185943
-0.00203198
-0.00217017
-0.00231833
-0.00252003
-0.00276762
-0.00303388
-0.00330106
-0.00357187
-0.00385774
-0.00415457
-0.0044247
-0.00461418
-0.00464281
-0.000539637
-0.000642152
-0.000882063
-0.00120125
-0.00149139
-0.0017337
-0.00194363
-0.00212752
-0.00227503
-0.00241824
-0.00260212
-0.0028323
-0.00309149
-0.00335813
-0.0036295
-0.00390955
-0.00419389
-0.00445059
-0.0046297
-0.00465717
-0.000589305
-0.000695662
-0.000936722
-0.00126105
-0.00156838
-0.00182221
-0.00203356
-0.0022231
-0.00237793
-0.00251812
-0.00268748
-0.00289706
-0.00313983
-0.0033984
-0.00366459
-0.00393777
-0.00421059
-0.00445489
-0.00462347
-0.00464746
-0.000642992
-0.00075295
-0.000996489
-0.00132513
-0.00164673
-0.00191457
-0.00213032
-0.00232178
-0.00248112
-0.00261885
-0.00277407
-0.00296142
-0.00318009
-0.00342128
-0.00367445
-0.00393497
-0.00419421
-0.0044256
-0.00458484
-0.00460535
-0.000700892
-0.000813803
-0.00106069
-0.00139418
-0.0017277
-0.00201049
-0.00223456
-0.00242636
-0.00258633
-0.0027218
-0.0028628
-0.00302536
-0.00321352
-0.00342624
-0.00365617
-0.00389412
-0.00413149
-0.00434498
-0.00449353
-0.00451164
-0.000762739
-0.000878314
-0.00112913
-0.0014685
-0.00181232
-0.00210942
-0.00234544
-0.00254089
-0.00269881
-0.00283022
-0.00295757
-0.00309182
-0.00324171
-0.00341228
-0.00360315
-0.00380602
-0.00400801
-0.00419138
-0.0043201
-0.00433123
-0.000828145
-0.000946308
-0.00120211
-0.00154821
-0.00190188
-0.00221257
-0.0024616
-0.0026649
-0.00282535
-0.00295225
-0.00306752
-0.00317323
-0.0032748
-0.0033843
-0.00350785
-0.00364569
-0.00379323
-0.00393599
-0.00403925
-0.00403966
-0.000894422
-0.00101788
-0.0012806
-0.00163364
-0.0019961
-0.00232072
-0.00258486
-0.00279813
-0.00296629
-0.00309444
-0.00320053
-0.00328904
-0.00335141
-0.00338679
-0.00339261
-0.00337494
-0.00335992
-0.00337368
-0.00342995
-0.00348869
-0.000960722
-0.00109284
-0.00136408
-0.00172518
-0.00209602
-0.00243385
-0.00271472
-0.00294293
-0.0031228
-0.00325974
-0.00336224
-0.00343962
-0.00349299
-0.00352225
-0.00350373
-0.00337578
-0.00306278
-0.00254343
-0.00196457
-0.00153034
-0.00103161
-0.00116868
-0.00144696
-0.00181939
-0.00220263
-0.00255571
-0.00285273
-0.00309791
-0.00329522
-0.00345065
-0.00356135
-0.00361332
-0.00358249
-0.00342546
-0.00307336
-0.00251322
-0.00188204
-0.00134137
-0.00100325
-0.000936514
-0.00110734
-0.00124437
-0.0015271
-0.00191094
-0.0023146
-0.00269249
-0.00301286
-0.00326738
-0.00346124
-0.00359718
-0.00366677
-0.00361514
-0.00335517
-0.00291367
-0.00241585
-0.00195215
-0.00156972
-0.00128441
-0.00111347
-0.00110186
-0.00118187
-0.00132392
-0.00160805
-0.00199475
-0.00241165
-0.0028235
-0.00320286
-0.0035214
-0.00373364
-0.00376004
-0.00355557
-0.00319799
-0.00277352
-0.00234995
-0.0019591
-0.0015971
-0.00127132
-0.00101095
-0.000867148
-0.000904253
-0.00125112
-0.00140365
-0.00170222
-0.00209957
-0.00250973
-0.00287835
-0.00317234
-0.00336899
-0.0034753
-0.00350822
-0.00348252
-0.00343358
-0.00332676
-0.00308669
-0.00266556
-0.00206338
-0.0014047
-0.000856788
-0.000543927
-0.00053468
-0.00131373
-0.00146201
-0.0017572
-0.00216475
-0.00261188
-0.00305619
-0.00343241
-0.00365985
-0.00368737
-0.00353086
-0.0032359
-0.00287425
-0.00249882
-0.00212258
-0.00176472
-0.0014427
-0.00116857
-0.0009645
-0.000872018
-0.00095498
-0.00137407
-0.00153936
-0.00184214
-0.00224469
-0.00266708
-0.00306499
-0.00339662
-0.00360803
-0.00366843
-0.00355668
-0.00327747
-0.00290658
-0.00254861
-0.00223636
-0.00195494
-0.00169313
-0.00145058
-0.00124721
-0.00112813
-0.00116691
0.0193145
0.0119756
0.0025563
-0.00428908
-0.0066861
-0.00624288
-0.00536837
-0.00501592
-0.00512137
-0.00530229
-0.00531529
-0.00523219
-0.0051914
-0.00514965
-0.00515161
-0.00532978
-0.00552345
-0.00554609
-0.00553134
-0.00560778
-0.00572604
-0.00584761
-0.00595187
-0.00601682
-0.0060996
-0.00625094
-0.00642201
-0.00655662
-0.00667711
-0.00681731
-0.00696735
-0.00710557
-0.00722785
-0.0073416
-0.00745715
-0.00758276
-0.00770081
-0.00780211
-0.00790667
-0.00803035
-0.00816577
-0.00831067
-0.00846345
-0.00861122
-0.00875561
-0.00890064
-0.00904866
-0.00918906
-0.00932386
-0.00946432
-0.00961614
-0.00976722
-0.00990798
-0.0100655
-0.0102336
-0.01039
-0.0105374
-0.0106951
-0.0108593
-0.0110183
-0.0111814
-0.0113439
-0.0115187
-0.0116982
-0.0118728
-0.0120475
-0.0122201
-0.0124101
-0.012608
-0.0128046
-0.0130065
-0.0132056
-0.0134101
-0.0136028
-0.0138067
-0.0140235
-0.0142406
-0.0144678
-0.0146802
-0.0149059
-0.0151381
-0.0153499
-0.0155951
-0.0158247
-0.0160411
-0.0162977
-0.0165273
-0.0167414
-0.0169925
-0.0172202
-0.0174517
-0.0177181
-0.0179416
-0.0181657
-0.0184455
-0.0186878
-0.0189144
-0.0191657
-0.0194096
-0.0196476
0.0180996
0.0117975
0.00263844
-0.00414893
-0.00659589
-0.00619771
-0.00534037
-0.0049974
-0.00510895
-0.00529343
-0.00530829
-0.00522614
-0.00518608
-0.00514467
-0.00514663
-0.00532533
-0.00551986
-0.00554283
-0.00552814
-0.00560481
-0.00572335
-0.00584515
-0.00594969
-0.00601478
-0.0060976
-0.00624908
-0.00642035
-0.0065551
-0.00667565
-0.00681592
-0.00696607
-0.00710438
-0.00722673
-0.00734055
-0.00745615
-0.00758183
-0.00769995
-0.0078013
-0.0079059
-0.00802961
-0.00816507
-0.00831
-0.00846282
-0.00861062
-0.00875504
-0.00890009
-0.00904814
-0.00918857
-0.00932339
-0.00946387
-0.0096157
-0.00976681
-0.00990758
-0.0100651
-0.0102333
-0.0103896
-0.010537
-0.0106947
-0.0108589
-0.011018
-0.0111812
-0.0113436
-0.0115185
-0.011698
-0.0118726
-0.0120473
-0.0122198
-0.0124098
-0.0126078
-0.0128044
-0.0130063
-0.0132054
-0.0134099
-0.0136027
-0.0138065
-0.0140233
-0.0142404
-0.0144677
-0.0146801
-0.0149057
-0.0151379
-0.0153497
-0.015595
-0.0158246
-0.016041
-0.0162976
-0.0165272
-0.0167414
-0.0169924
-0.0172201
-0.0174516
-0.0177181
-0.0179416
-0.0181657
-0.0184455
-0.0186878
-0.0189143
-0.0191656
-0.0194095
-0.0196476
0.0170892
0.0116648
0.00282544
-0.00388502
-0.00644431
-0.00614078
-0.00531149
-0.00497473
-0.00509077
-0.00527953
-0.00529779
-0.00521827
-0.00518035
-0.00514009
-0.00514222
-0.00532116
-0.00551621
-0.00553951
-0.00552511
-0.00560214
-0.00572086
-0.00584282
-0.00594761
-0.00601286
-0.00609576
-0.0062474
-0.00641886
-0.00655371
-0.00667434
-0.00681471
-0.00696494
-0.00710332
-0.00722574
-0.00733962
-0.00745526
-0.007581
-0.0076992
-0.00780058
-0.00790519
-0.00802895
-0.00816445
-0.00830941
-0.00846227
-0.00861011
-0.00875455
-0.00889962
-0.00904769
-0.00918814
-0.00932298
-0.00946346
-0.00961532
-0.00976645
-0.00990723
-0.0100648
-0.0102329
-0.0103893
-0.0105367
-0.0106945
-0.0108587
-0.0110178
-0.0111809
-0.0113434
-0.0115182
-0.0116978
-0.0118723
-0.0120471
-0.0122196
-0.0124096
-0.0126077
-0.0128043
-0.0130061
-0.0132052
-0.0134097
-0.0136025
-0.0138063
-0.0140232
-0.0142403
-0.0144675
-0.0146799
-0.0149056
-0.0151378
-0.0153496
-0.0155949
-0.0158245
-0.0160409
-0.0162976
-0.0165272
-0.0167413
-0.0169923
-0.01722
-0.0174516
-0.017718
-0.0179415
-0.0181656
-0.0184454
-0.0186877
-0.0189143
-0.0191656
-0.0194095
-0.0196476
0.0161712
0.0115164
0.00304987
-0.00356174
-0.0062429
-0.00606284
-0.00527033
-0.0049403
-0.00506154
-0.00525613
-0.00527991
-0.00520534
-0.00517174
-0.00513459
-0.00513777
-0.00531628
-0.00551104
-0.00553495
-0.00552168
-0.00559941
-0.00571809
-0.00583996
-0.00594501
-0.0060106
-0.00609371
-0.00624547
-0.00641705
-0.00655207
-0.00667288
-0.0068134
-0.0069637
-0.00710213
-0.00722462
-0.00733859
-0.0074543
-0.0075801
-0.00769835
-0.00779977
-0.00790442
-0.00802823
-0.00816378
-0.00830878
-0.00846169
-0.00860956
-0.00875403
-0.00889912
-0.00904723
-0.0091877
-0.00932254
-0.00946304
-0.00961492
-0.00976608
-0.00990686
-0.0100644
-0.0102326
-0.010389
-0.0105364
-0.0106942
-0.0108584
-0.0110175
-0.0111806
-0.0113431
-0.011518
-0.0116975
-0.0118721
-0.0120469
-0.0122194
-0.0124094
-0.0126075
-0.0128041
-0.0130059
-0.013205
-0.0134096
-0.0136024
-0.0138062
-0.014023
-0.0142402
-0.0144674
-0.0146798
-0.0149055
-0.0151377
-0.0153495
-0.0155948
-0.0158244
-0.0160408
-0.0162975
-0.0165271
-0.0167412
-0.0169922
-0.01722
-0.0174515
-0.0177179
-0.0179415
-0.0181655
-0.0184454
-0.0186877
-0.0189143
-0.0191656
-0.0194095
-0.0196476
0.0152556
0.0113145
0.00327075
-0.00322462
-0.00602304
-0.00597503
-0.00522317
-0.00489766
-0.00502216
-0.00522254
-0.00525332
-0.00518566
-0.00515846
-0.00512697
-0.00513279
-0.00531018
-0.00550339
-0.00552826
-0.00551737
-0.00559643
-0.00571492
-0.00583628
-0.00594153
-0.00600781
-0.00609133
-0.00624301
-0.00641452
-0.0065498
-0.00667104
-0.00681181
-0.00696214
-0.00710059
-0.00722323
-0.00733737
-0.00745316
-0.007579
-0.00769728
-0.00779876
-0.00790348
-0.00802736
-0.00816297
-0.00830803
-0.00846101
-0.00860893
-0.00875344
-0.00889856
-0.00904669
-0.00918719
-0.00932205
-0.00946257
-0.00961447
-0.00976566
-0.00990645
-0.010064
-0.0102323
-0.0103887
-0.0105361
-0.0106938
-0.0108581
-0.0110172
-0.0111804
-0.0113429
-0.0115177
-0.0116973
-0.0118719
-0.0120466
-0.0122192
-0.0124092
-0.0126073
-0.0128039
-0.0130058
-0.0132049
-0.0134094
-0.0136022
-0.013806
-0.0140229
-0.01424
-0.0144673
-0.0146797
-0.0149054
-0.0151376
-0.0153494
-0.0155947
-0.0158243
-0.0160407
-0.0162974
-0.016527
-0.0167411
-0.0169922
-0.0172199
-0.0174514
-0.0177179
-0.0179414
-0.0181655
-0.0184453
-0.0186877
-0.0189142
-0.0191655
-0.0194095
-0.0196476
0.0143432
0.0110613
0.00348155
-0.00288359
-0.00579313
-0.00588254
-0.0051756
-0.00485254
-0.00497756
-0.00518266
-0.00522064
-0.00516062
-0.00514094
-0.005117
-0.00512691
-0.00530257
-0.00549311
-0.00551928
-0.00551195
-0.00559304
-0.00571126
-0.00583172
-0.00593713
-0.00600457
-0.00608877
-0.00624005
-0.00641106
-0.00654666
-0.00666862
-0.00680977
-0.00696006
-0.0070985
-0.00722139
-0.00733586
-0.00745181
-0.00757765
-0.00769594
-0.00779748
-0.0079023
-0.00802627
-0.00816195
-0.00830709
-0.00846016
-0.00860815
-0.00875273
-0.00889789
-0.00904606
-0.00918659
-0.00932148
-0.00946201
-0.00961393
-0.00976517
-0.00990598
-0.0100636
-0.0102318
-0.0103883
-0.0105357
-0.0106935
-0.0108578
-0.0110169
-0.01118
-0.0113425
-0.0115174
-0.011697
-0.0118716
-0.0120464
-0.0122189
-0.0124089
-0.012607
-0.0128037
-0.0130055
-0.0132047
-0.0134092
-0.013602
-0.0138058
-0.0140227
-0.0142398
-0.0144671
-0.0146795
-0.0149052
-0.0151375
-0.0153493
-0.0155945
-0.0158242
-0.0160406
-0.0162973
-0.0165269
-0.016741
-0.0169921
-0.0172198
-0.0174513
-0.0177178
-0.0179414
-0.0181654
-0.0184453
-0.0186876
-0.0189141
-0.0191655
-0.0194095
-0.0196477
0.0134459
0.0107642
0.00368037
-0.00254018
-0.00555339
-0.00578516
-0.00512856
-0.00480695
-0.00493022
-0.00513924
-0.00518447
-0.00513236
-0.00512064
-0.0051052
-0.00511996
-0.00529353
-0.00548074
-0.00550851
-0.00550553
-0.00558911
-0.00570701
-0.0058263
-0.00593191
-0.00600103
-0.00608623
-0.00623675
-0.00640679
-0.00654265
-0.00666557
-0.00680716
-0.0069573
-0.00709566
-0.0072189
-0.00733393
-0.00745018
-0.00757603
-0.00769431
-0.00779596
-0.00790089
-0.00802492
-0.00816066
-0.00830587
-0.00845904
-0.00860716
-0.00875185
-0.00889707
-0.00904527
-0.00918586
-0.0093208
-0.00946135
-0.00961327
-0.00976456
-0.00990543
-0.010063
-0.0102313
-0.0103878
-0.0105353
-0.0106931
-0.0108574
-0.0110165
-0.0111797
-0.0113422
-0.0115171
-0.0116967
-0.0118713
-0.0120461
-0.0122186
-0.0124086
-0.0126067
-0.0128034
-0.0130053
-0.0132044
-0.013409
-0.0136018
-0.0138056
-0.0140225
-0.0142396
-0.0144669
-0.0146793
-0.014905
-0.0151373
-0.0153491
-0.0155944
-0.015824
-0.0160404
-0.0162971
-0.0165268
-0.0167409
-0.0169919
-0.0172197
-0.0174512
-0.0177177
-0.0179413
-0.0181653
-0.0184452
-0.0186875
-0.0189141
-0.0191655
-0.0194094
-0.0196478
0.012574
0.0104275
0.00386292
-0.00219635
-0.00530331
-0.00568136
-0.00508163
-0.0047615
-0.00488097
-0.00509323
-0.0051459
-0.00510202
-0.0050985
-0.00509195
-0.00511198
-0.00528341
-0.00546703
-0.00549656
-0.00549837
-0.00558463
-0.00570214
-0.00582011
-0.00592604
-0.0059973
-0.00608381
-0.00623334
-0.00640201
-0.00653805
-0.00666201
-0.00680402
-0.00695383
-0.00709198
-0.00721566
-0.00733142
-0.00744811
-0.00757403
-0.00769238
-0.00779425
-0.00789934
-0.00802339
-0.00815913
-0.00830435
-0.00845758
-0.00860586
-0.00875072
-0.00889604
-0.00904428
-0.00918496
-0.00932
-0.00946055
-0.00961244
-0.0097638
-0.00990476
-0.0100624
-0.0102306
-0.0103872
-0.0105348
-0.0106926
-0.0108569
-0.011016
-0.0111793
-0.0113418
-0.0115167
-0.0116963
-0.0118709
-0.0120458
-0.0122183
-0.0124083
-0.0126064
-0.0128031
-0.013005
-0.0132042
-0.0134087
-0.0136015
-0.0138054
-0.0140223
-0.0142394
-0.0144667
-0.0146791
-0.0149048
-0.0151371
-0.0153489
-0.0155942
-0.0158239
-0.0160402
-0.016297
-0.0165266
-0.0167407
-0.0169918
-0.0172196
-0.0174511
-0.0177176
-0.0179412
-0.0181652
-0.0184451
-0.0186875
-0.018914
-0.0191654
-0.0194094
-0.0196479
0.0117358
0.0100542
0.00402327
-0.00185463
-0.00504211
-0.00556914
-0.00503408
-0.00471671
-0.00483036
-0.00504496
-0.00510532
-0.00507005
-0.0050749
-0.00507747
-0.00510316
-0.00527257
-0.00545247
-0.00548382
-0.00549065
-0.00557969
-0.00569672
-0.0058133
-0.00591964
-0.00599337
-0.00608144
-0.00622991
-0.00639699
-0.00653315
-0.00665821
-0.00680054
-0.0069498
-0.00708758
-0.00721169
-0.00732829
-0.00744553
-0.00757156
-0.00769009
-0.00779237
-0.00789774
-0.00802181
-0.00815747
-0.00830261
-0.00845581
-0.00860421
-0.00874928
-0.00889473
-0.00904304
-0.00918386
-0.00931905
-0.00945961