/*--------------------------------*- C++ -*----------------------------------*\
| =========                 |                                                 |
| \\      /  F ield         | OpenFOAM: The Open Source CFD Toolbox           |
|  \\    /   O peration     | Version:  3.0.1                                 |
|   \\  /    A nd           | Web:      www.OpenFOAM.org                      |
|    \\/     M anipulation  |                                                 |
\*---------------------------------------------------------------------------*/
FoamFile
{
    version     2.0;
    format      ascii;
    class       surfaceScalarField;
    location    "1.3";
    object      phi;
}
// * * * * * * * * * * * * * * * * * * * * * * * * * * * * * * * * * * * * * //

dimensions      [0 3 -1 0 0 0 0];

internalField   nonuniform List<scalar> 
19000
(
1.18265e-06
2.83293e-07
1.14264e-06
-1.92694e-07
1.16245e-06
-3.69512e-07
1.18851e-06
1.53206e-07
1.15335e-06
3.53184e-07
1.12508e-06
-2.67578e-07
1.18048e-06
1.82886e-07
1.15537e-06
-3.50527e-07
1.1737e-06
-1.11565e-07
1.17098e-06
1.60986e-07
1.15694e-06
-1.19598e-07
1.15793e-06
1.51717e-07
1.15527e-06
1.05026e-07
1.15246e-06
2.98375e-07
1.15646e-06
1.42761e-08
1.14965e-06
7.10707e-08
1.15912e-06
-2.49191e-08
1.15196e-06
-7.65076e-08
1.15604e-06
6.85771e-09
-1.70552e-07
1.10989e-06
1.23584e-06
2.71715e-07
1.19768e-06
-1.5454e-07
1.21801e-06
-3.8984e-07
1.24622e-06
1.25001e-07
1.20806e-06
3.91339e-07
1.18149e-06
-2.41008e-07
1.23249e-06
1.31891e-07
1.21118e-06
-3.29221e-07
1.2266e-06
-1.26985e-07
1.23158e-06
1.56009e-07
1.21314e-06
-1.01158e-07
1.21917e-06
1.45693e-07
1.20892e-06
1.15271e-07
1.21821e-06
2.89085e-07
1.20967e-06
2.28213e-08
1.21845e-06
6.22858e-08
1.2089e-06
-1.53727e-08
1.22188e-06
-8.94806e-08
1.20087e-06
2.78657e-08
-1.63249e-07
1.19357e-06
1.29026e-06
2.64239e-07
1.25823e-06
-1.22511e-07
1.27504e-06
-4.06651e-07
1.30529e-06
9.4753e-08
1.26699e-06
4.2964e-07
1.24416e-06
-2.18177e-07
1.28645e-06
8.95985e-08
1.2747e-06
-3.17475e-07
1.2811e-06
-1.33385e-07
1.29524e-06
1.41871e-07
1.27155e-06
-7.74657e-08
1.28e-06
1.37242e-07
1.26531e-06
1.29958e-07
1.27838e-06
2.76021e-07
1.26717e-06
3.40271e-08
1.2767e-06
5.27565e-08
1.26835e-06
-7.02722e-09
1.27538e-06
-9.65104e-08
1.26755e-06
3.5698e-08
-1.45885e-07
1.25019e-06
1.34724e-06
2.61104e-07
1.32403e-06
-9.9302e-08
1.3347e-06
-4.17323e-07
1.36416e-06
6.52963e-08
1.32999e-06
4.63804e-07
1.31242e-06
-2.00604e-07
1.34413e-06
5.78905e-08
1.34223e-06
-3.15576e-07
1.34036e-06
-1.31511e-07
1.35757e-06
1.24655e-07
1.33443e-06
-5.43258e-08
1.33813e-06
1.33545e-07
1.32705e-06
1.41033e-07
1.33682e-06
2.66255e-07
1.32987e-06
4.09808e-08
1.33598e-06
4.66471e-08
1.33143e-06
-2.48337e-09
1.33395e-06
-9.90289e-08
1.33086e-06
3.87921e-08
-1.26737e-07
1.31171e-06
1.40796e-06
2.61496e-07
1.39367e-06
-8.50053e-08
1.39788e-06
-4.21538e-07
1.42299e-06
4.01917e-08
1.39698e-06
4.89811e-07
1.38467e-06
-1.88298e-07
1.40653e-06
3.60359e-08
1.41042e-06
-3.19468e-07
1.40496e-06
-1.26057e-07
1.41938e-06
1.10239e-07
1.40139e-06
-3.63328e-08
1.39969e-06
1.35244e-07
1.39341e-06
1.4731e-07
1.4012e-06
2.58467e-07
1.39691e-06
4.52731e-08
1.40181e-06
4.17471e-08
1.39799e-06
1.33241e-09
1.39858e-06
-9.96167e-08
1.39646e-06
4.09086e-08
-1.0725e-07
1.37697e-06
1.4734e-06
2.63772e-07
1.46597e-06
-7.75785e-08
1.46527e-06
-4.20831e-07
1.48353e-06
2.19251e-08
1.46745e-06
5.05892e-07
1.45967e-06
-1.80518e-07
1.4738e-06
2.1905e-08
1.47877e-06
-3.24435e-07
1.47339e-06
-1.20677e-07
1.48324e-06
1.0039e-07
1.47061e-06
-2.37011e-08
1.46712e-06
1.38729e-07
1.4638e-06
1.50635e-07
1.4715e-06
2.50767e-07
1.46788e-06
4.88907e-08
1.47226e-06
3.73663e-08
1.46829e-06
5.30013e-09
1.46695e-06
-9.82761e-08
1.46564e-06
4.22152e-08
-8.70933e-08
1.44549e-06
1.54385e-06
2.66144e-07
1.54061e-06
-7.43407e-08
1.53696e-06
-4.17181e-07
1.54795e-06
1.09314e-08
1.54085e-06
5.12994e-07
1.53677e-06
-1.76443e-07
1.54542e-06
1.32624e-08
1.54845e-06
-3.27471e-07
1.544e-06
-1.16223e-07
1.55034e-06
9.40521e-08
1.54136e-06
-1.47211e-08
1.53901e-06
1.41077e-07
1.53755e-06
1.52093e-07
1.54555e-06
2.42769e-07
1.54185e-06
5.25841e-08
1.5456e-06
3.36173e-08
1.54152e-06
9.37942e-09
1.53811e-06
-9.48658e-08
1.53757e-06
4.27549e-08
-6.64798e-08
1.51696e-06
1.61888e-06
2.67388e-07
1.61774e-06
-7.31961e-08
1.61246e-06
-4.11905e-07
1.61758e-06
5.81032e-09
1.61704e-06
5.13539e-07
1.61578e-06
-1.75181e-07
1.62072e-06
8.325e-09
1.6208e-06
-3.27551e-07
1.61658e-06
-1.12005e-07
1.62091e-06
8.97193e-08
1.61419e-06
-7.99964e-09
1.61385e-06
1.41413e-07
1.61388e-06
1.52062e-07
1.62212e-06
2.3453e-07
1.61824e-06
5.64676e-08
1.62129e-06
3.05674e-08
1.61735e-06
1.33234e-08
1.61197e-06
-8.94895e-08
1.61212e-06
4.26018e-08
-4.58641e-08
1.59151e-06
1.69785e-06
2.67117e-07
1.69764e-06
-7.29904e-08
1.6912e-06
-4.05468e-07
1.69268e-06
4.33772e-09
1.69635e-06
5.09863e-07
1.69679e-06
-1.75621e-07
1.6993e-06
5.82049e-09
1.69668e-06
-3.24938e-07
1.69198e-06
-1.07301e-07
1.69527e-06
8.64305e-08
1.69005e-06
-2.78607e-09
1.69139e-06
1.40079e-07
1.69257e-06
1.50877e-07
1.70101e-06
2.26098e-07
1.69715e-06
6.03295e-08
1.69947e-06
2.82414e-08
1.69596e-06
1.68368e-08
1.68885e-06
-8.23846e-08
1.68957e-06
4.18809e-08
-2.57744e-08
1.66948e-06
1.78031e-06
2.65532e-07
1.78056e-06
-7.32464e-08
1.77296e-06
-3.97869e-07
1.77283e-06
4.47293e-09
1.77919e-06
5.03506e-07
1.78015e-06
-1.76585e-07
1.78107e-06
4.89548e-09
1.77654e-06
-3.20407e-07
1.77116e-06
-1.01914e-07
1.7739e-06
8.36896e-08
1.76977e-06
1.33836e-09
1.77208e-06
1.37774e-07
1.77404e-06
1.48912e-07
1.78256e-06
2.17577e-07
1.77904e-06
6.38533e-08
1.7806e-06
2.66823e-08
1.77771e-06
1.97218e-08
1.76919e-06
-7.38653e-08
1.77024e-06
4.08352e-08
-6.75142e-09
1.75122e-06
1.86624e-06
2.63037e-07
1.86679e-06
-7.37886e-08
1.85796e-06
-3.89048e-07
1.85758e-06
4.85296e-09
1.86579e-06
4.95301e-07
1.86633e-06
-1.77127e-07
1.86623e-06
4.99778e-09
1.86054e-06
-3.14722e-07
1.8547e-06
-9.607e-08
1.85718e-06
8.12127e-08
1.85389e-06
4.62297e-09
1.85651e-06
1.35154e-07
1.85896e-06
1.46466e-07
1.86738e-06
2.09155e-07
1.86443e-06
6.67983e-08
1.86517e-06
2.59436e-08
1.86294e-06
2.19541e-08
1.85337e-06
-6.42941e-08
1.85438e-06
3.98271e-08
1.06984e-08
1.83693e-06
1.9559e-06
2.59972e-07
1.95664e-06
-7.4527e-08
1.94665e-06
-3.79051e-07
1.9467e-06
4.80154e-09
1.95629e-06
4.85708e-07
1.95587e-06
-1.7671e-07
1.9551e-06
5.76577e-09
1.94878e-06
-3.08401e-07
1.94287e-06
-9.01546e-08
1.94523e-06
7.88493e-08
1.94267e-06
7.18308e-09
1.94514e-06
1.32689e-07
1.9479e-06
1.43701e-07
1.95601e-06
2.01051e-07
1.95374e-06
6.90656e-08
1.95364e-06
2.60455e-08
1.95191e-06
2.36802e-08
1.94168e-06
-5.4068e-08
1.94225e-06
3.92562e-08
2.61919e-08
1.92676e-06
2.0496e-06
2.56557e-07
2.05047e-06
-7.53959e-08
2.03946e-06
-3.68034e-07
2.04013e-06
4.12684e-09
2.05081e-06
4.75029e-07
2.04927e-06
-1.75172e-07
2.0481e-06
6.94078e-09
2.04139e-06
-3.01689e-07
2.03577e-06
-8.4535e-08
2.03802e-06
7.65927e-08
2.03617e-06
9.03854e-09
2.0382e-06
1.3066e-07
2.04124e-06
1.40654e-07
2.04885e-06
1.93449e-07
2.04723e-06
7.06821e-08
2.04635e-06
2.69249e-08
2.04486e-06
2.51724e-08
2.03439e-06
-4.36024e-08
2.03422e-06
3.94232e-08
3.95605e-08
2.02086e-06
2.14765e-06
2.52911e-07
2.1486e-06
-7.63504e-08
2.13677e-06
-3.56208e-07
2.13799e-06
2.90959e-09
2.14953e-06
4.63494e-07
2.14695e-06
-1.72595e-07
2.14558e-06
8.30734e-09
2.13852e-06
-2.94627e-07
2.13347e-06
-7.94817e-08
2.1355e-06
7.45623e-08
2.13437e-06
1.01671e-08
2.13583e-06
1.29202e-07
2.13918e-06
1.37303e-07
2.14619e-06
1.86441e-07
2.1451e-06
7.17679e-08
2.14361e-06
2.8414e-08
2.14203e-06
2.67607e-08
2.13171e-06
-3.32838e-08
2.13068e-06
4.04547e-08
5.08562e-08
2.11938e-06
2.25029e-06
2.49106e-07
2.25131e-06
-7.7364e-08
2.23889e-06
-3.43793e-07
2.24046e-06
1.34628e-09
2.25267e-06
4.51283e-07
2.24923e-06
-1.69159e-07
2.24788e-06
9.66125e-09
2.24038e-06
-2.87135e-07
2.23606e-06
-7.51594e-08
2.23768e-06
7.29417e-08
2.23731e-06
1.05442e-08
2.23816e-06
1.28345e-07
2.24184e-06
1.33627e-07
2.24827e-06
1.80004e-07
2.24753e-06
7.2508e-08
2.24569e-06
3.0261e-08
2.24368e-06
2.87726e-08
2.23382e-06
-2.34249e-08
2.23198e-06
4.22898e-08
6.03149e-08
2.22252e-06
2.3578e-06
2.45181e-07
2.35886e-06
-7.84204e-08
2.34605e-06
-3.30987e-07
2.34775e-06
-3.51293e-10
2.3605e-06
4.38529e-07
2.35637e-06
-1.65031e-07
2.35523e-06
1.08048e-08
2.34718e-06
-2.79083e-07
2.34367e-06
-7.16491e-08
2.3447e-06
7.19136e-08
2.34508e-06
1.01641e-08
2.34537e-06
1.28049e-07
2.34935e-06
1.29651e-07
2.35535e-06
1.74007e-07
2.35472e-06
7.31373e-08
2.3528e-06
3.2177e-08
2.35013e-06
3.14491e-08
2.3409e-06
-1.42002e-08
2.33845e-06
4.47368e-08
6.82653e-08
2.3305e-06
2.47042e-06
2.41156e-07
2.47151e-06
-7.95079e-08
2.45847e-06
-3.17946e-07
2.46012e-06
-2.00841e-09
2.47333e-06
4.25319e-07
2.46862e-06
-1.6032e-07
2.46787e-06
1.15583e-08
2.45913e-06
-2.70344e-07
2.45646e-06
-6.89818e-08
2.45676e-06
7.16173e-08
2.45787e-06
9.05201e-09
2.45771e-06
1.28212e-07
2.46189e-06
1.25472e-07
2.46767e-06
1.68227e-07
2.46687e-06
7.39308e-08
2.46516e-06
3.3895e-08
2.46176e-06
3.48478e-08
2.45311e-06
-5.55025e-09
2.45033e-06
4.75099e-08
7.50307e-08
2.44357e-06
2.58841e-06
2.37042e-07
2.58952e-06
-8.06161e-08
2.57636e-06
-3.04786e-07
2.57785e-06
-3.50073e-09
2.59147e-06
4.11698e-07
2.58621e-06
-1.55064e-07
2.586e-06
1.17753e-08
2.57647e-06
-2.60817e-07
2.57465e-06
-6.71651e-08
2.57414e-06
7.21303e-08
2.57592e-06
7.27325e-09
2.57545e-06
1.28679e-07
2.57966e-06
1.21267e-07
2.5855e-06
1.62386e-07
2.58426e-06
7.51644e-08
2.58291e-06
3.52438e-08
2.57894e-06
3.88224e-08
2.5706e-06
2.79425e-09
2.56783e-06
5.02757e-08
8.0863e-08
2.562e-06
2.71203e-06
2.3284e-07
2.71315e-06
-8.17359e-08
2.69995e-06
-2.91585e-07
2.70119e-06
-4.74246e-09
2.71522e-06
3.97666e-07
2.7094e-06
-1.49244e-07
2.70983e-06
1.13492e-08
2.69945e-06
-2.50434e-07
2.69847e-06
-6.61928e-08
2.69715e-06
7.34598e-08
2.69947e-06
4.94513e-09
2.69892e-06
1.29236e-07
2.70289e-06
1.17294e-07
2.70908e-06
1.56192e-07
2.70718e-06
7.70677e-08
2.70623e-06
3.61975e-08
2.70198e-06
4.30669e-08
2.6936e-06
1.11709e-08
2.69111e-06
5.27692e-08
8.58857e-08
2.68609e-06
2.84156e-06
2.28546e-07
2.84268e-06
-8.28578e-08
2.8295e-06
-2.78401e-07
2.83042e-06
-5.6666e-09
2.8449e-06
3.83194e-07
2.83847e-06
-1.42816e-07
2.8396e-06
1.02125e-08
2.82833e-06
-2.39165e-07
2.82818e-06
-6.60382e-08
2.8261e-06
7.55384e-08
2.82881e-06
2.23988e-09
2.82842e-06
1.29623e-07
2.83187e-06
1.13848e-07
2.83864e-06
1.49414e-07
2.83599e-06
7.97243e-08
2.83525e-06
3.69339e-08
2.83113e-06
4.71897e-08
2.82249e-06
1.98094e-08
2.82033e-06
5.49246e-08
9.00746e-08
2.81614e-06
2.97728e-06
2.24158e-07
2.9784e-06
-8.39692e-08
2.96528e-06
-2.65287e-07
2.96583e-06
-6.20893e-09
2.98078e-06
3.68235e-07
2.97369e-06
-1.35725e-07
2.97557e-06
8.33196e-09
2.96343e-06
-2.27018e-07
2.96403e-06
-6.66395e-08
2.96134e-06
7.82234e-08
2.96419e-06
-6.06734e-10
2.96428e-06
1.29537e-07
2.9669e-06
1.11229e-07
2.97438e-06
1.41934e-07
2.97107e-06
8.3026e-08
2.97018e-06
3.78301e-08
2.96658e-06
5.07831e-08
2.95765e-06
2.87459e-08
2.95567e-06
5.69017e-08
9.32993e-08
2.95245e-06
3.1195e-06
2.19667e-07
3.12058e-06
-8.50514e-08
3.1076e-06
-2.52307e-07
3.10769e-06
-6.29737e-09
3.12319e-06
3.52735e-07
3.11539e-06
-1.27926e-07
3.11802e-06
5.70404e-09
3.10504e-06
-2.14043e-07
3.10629e-06
-6.78849e-08
3.10321e-06
8.12985e-08
3.10591e-06
-3.30175e-09
3.10678e-06
1.28663e-07
3.10834e-06
1.09673e-07
3.11648e-06
1.33787e-07
3.1128e-06
8.67108e-08
3.1113e-06
3.93279e-08
3.10851e-06
5.35792e-08
3.09949e-06
3.77582e-08
3.09735e-06
5.90423e-08
9.54101e-08
3.09524e-06
3.26851e-06
2.15065e-07
3.26954e-06
-8.60763e-08
3.25676e-06
-2.39534e-07
3.25632e-06
-5.84848e-09
3.2724e-06
3.36646e-07
3.26387e-06
-1.19397e-07
3.26722e-06
2.35843e-09
3.25352e-06
-2.00343e-07
3.25524e-06
-6.95998e-08
3.25205e-06
8.44838e-08
3.25427e-06
-5.51811e-09
3.2562e-06
1.26729e-07
3.25657e-06
1.09299e-07
3.26518e-06
1.25177e-07
3.2615e-06
9.03949e-08
3.25899e-06
4.18349e-08
3.25709e-06
5.54846e-08
3.24836e-06
4.64885e-08
3.24571e-06
6.16944e-08
9.63659e-08
3.24475e-06
3.42466e-06
2.1034e-07
3.42558e-06
-8.70037e-08
3.41312e-06
-2.27067e-07
3.41203e-06
-4.76725e-09
3.42875e-06
3.19932e-07
3.41949e-06
-1.10141e-07
3.42349e-06
-1.63562e-09
3.40923e-06
-1.86084e-07
3.41117e-06
-7.15427e-08
3.4082e-06
8.74507e-08
3.40962e-06
-6.93024e-09
3.41279e-06
1.23555e-07
3.41201e-06
1.10076e-07
3.42075e-06
1.16438e-07
3.41746e-06
9.3689e-08
3.41373e-06
4.55592e-08
3.41256e-06
5.66552e-08
3.40454e-06
5.45123e-08
3.40114e-06
6.50906e-08
9.63171e-08
3.40119e-06
3.58827e-06
2.05477e-07
3.58905e-06
-8.77791e-08
3.577e-06
-2.15021e-07
3.57519e-06
-2.95085e-09
3.59255e-06
3.02574e-07
3.5826e-06
-1.00197e-07
3.58713e-06
-6.16048e-09
3.57254e-06
-1.71502e-07
3.57442e-06
-7.34156e-08
3.57201e-06
8.98554e-08
3.57235e-06
-7.26695e-09
3.57679e-06
1.19116e-07
3.57506e-06
1.11803e-07
3.5835e-06
1.08003e-07
3.58094e-06
9.62461e-08
3.57599e-06
5.05075e-08
3.57522e-06
5.74214e-08
3.5683e-06
6.14352e-08
3.56413e-06
6.92611e-08
9.56274e-08
3.56482e-06
3.75973e-06
2.00456e-07
3.76028e-06
-8.83313e-08
3.7488e-06
-2.03538e-07
3.74614e-06
-2.95581e-10
3.76413e-06
2.84581e-07
3.75358e-06
-8.96475e-08
3.75846e-06
-1.10391e-08
3.74387e-06
-1.56907e-07
3.74533e-06
-7.48748e-08
3.74381e-06
9.13765e-08
3.7429e-06
-6.36094e-09
3.74846e-06
1.13554e-07
3.74611e-06
1.1415e-07
3.75377e-06
1.00348e-07
3.75222e-06
9.7799e-08
3.7462e-06
5.65285e-08
3.74546e-06
5.81556e-08
3.73989e-06
6.70023e-08
3.73515e-06
7.40085e-08
9.48125e-08
3.73596e-06
3.93939e-06
1.95251e-07
3.93963e-06
-8.85726e-08
3.92888e-06
-1.92779e-07
3.92529e-06
3.2919e-09
3.94387e-06
2.66003e-07
3.93285e-06
-7.86289e-08
3.93783e-06
-1.60255e-08
3.9236e-06
-1.42672e-07
3.92429e-06
-7.55673e-08
3.92389e-06
9.17761e-08
3.92173e-06
-4.20323e-09
3.92811e-06
1.07174e-07
3.92552e-06
1.16743e-07
3.93201e-06
9.38567e-08
3.93153e-06
9.8276e-08
3.92477e-06
6.32968e-08
3.92371e-06
5.92106e-08
3.91958e-06
7.1129e-08
3.91464e-06
7.8954e-08
9.44084e-08
3.91504e-06
4.12767e-06
1.89833e-07
4.12749e-06
-8.83989e-08
4.11764e-06
-1.8292e-07
4.11304e-06
7.88292e-09
4.1321e-06
2.46945e-07
4.12082e-06
-6.73426e-08
4.1256e-06
-2.08075e-08
4.11213e-06
-1.29207e-07
4.11176e-06
-7.51889e-08
4.11256e-06
9.09688e-08
4.10933e-06
-9.6755e-10
4.11611e-06
1.00388e-07
4.11361e-06
1.19249e-07
4.11869e-06
8.87757e-08
4.11921e-06
9.77522e-08
4.11209e-06
7.0416e-08
4.11043e-06
6.08694e-08
4.10769e-06
7.38768e-08
4.103e-06
8.3643e-08
9.48022e-08
4.1026e-06
4.32497e-06
1.84169e-07
4.32426e-06
-8.76963e-08
4.31548e-06
-1.74136e-07
4.30985e-06
1.35094e-08
4.32922e-06
2.27578e-07
4.31795e-06
-5.60699e-08
4.32214e-06
-2.50021e-08
4.30988e-06
-1.16943e-07
4.30822e-06
-7.35266e-08
4.31012e-06
8.90614e-08
4.30612e-06
3.0342e-09
4.31288e-06
9.36248e-08
4.31069e-06
1.21442e-07
4.31426e-06
8.52092e-08
4.31562e-06
9.63861e-08
4.30858e-06
7.74649e-08
4.30613e-06
6.33162e-08
4.30455e-06
7.54599e-08
4.30056e-06
8.76273e-08
9.61051e-08
4.29926e-06
4.53172e-06
1.78224e-07
4.53037e-06
-8.63435e-08
4.52281e-06
-1.66579e-07
4.51619e-06
2.01301e-08
4.53561e-06
2.08155e-07
4.5247e-06
-4.51562e-08
4.5279e-06
-2.82026e-08
4.51719e-06
-1.06231e-07
4.51421e-06
-7.05524e-08
4.51692e-06
8.63524e-08
4.51251e-06
7.44277e-09
4.5189e-06
8.72375e-08
4.51708e-06
1.23265e-07
4.51917e-06
8.31176e-08
4.5212e-06
9.43569e-08
4.51462e-06
8.40433e-08
4.51134e-06
6.65969e-08
4.51056e-06
7.6234e-08
4.50765e-06
9.05437e-08
9.81142e-08
4.50564e-06
4.74838e-06
1.7196e-07
4.74625e-06
-8.42173e-08
4.74003e-06
-1.60355e-07
4.73255e-06
2.76076e-08
4.75169e-06
1.89014e-07
4.74154e-06
-3.50036e-08
4.74334e-06
-2.9998e-08
4.73437e-06
-9.7264e-08
4.73028e-06
-6.6461e-08
4.73337e-06
8.3255e-08
4.72885e-06
1.19621e-08
4.73465e-06
8.14431e-08
4.73313e-06
1.2478e-07
4.73385e-06
8.2407e-08
4.73642e-06
9.17837e-08
4.73063e-06
8.98318e-08
4.72662e-06
7.06056e-08
4.72622e-06
7.66374e-08
4.72455e-06
9.2212e-08
1.00368e-07
4.7223e-06
4.97541e-06
1.65347e-07
4.9724e-06
-8.1203e-08
4.96755e-06
-1.55509e-07
4.95947e-06
3.56847e-08
4.97792e-06
1.70568e-07
4.96894e-06
-2.6023e-08
4.96899e-06
-3.00508e-08
4.96175e-06
-9.002e-08
4.95692e-06
-6.16377e-08
4.95995e-06
8.02237e-08
4.95549e-06
1.64228e-08
4.96059e-06
7.63504e-08
4.95933e-06
1.2604e-07
4.95878e-06
8.2952e-08
4.96182e-06
8.875e-08
4.95706e-06
9.45859e-08
4.95249e-06
7.5177e-08
4.95209e-06
7.70348e-08
4.95158e-06
9.27213e-08
1.02285e-07
4.94967e-06
5.21331e-06
1.58357e-07
5.20931e-06
-7.72043e-08
5.20581e-06
-1.52008e-07
5.19751e-06
4.39857e-08
5.21481e-06
1.53265e-07
5.20735e-06
-1.85676e-08
5.20553e-06
-2.82275e-08
5.19971e-06
-8.42003e-08
5.19462e-06
-5.65519e-08
5.19719e-06
7.76588e-08
5.19279e-06
2.08245e-08
5.19718e-06
7.19581e-08
5.19618e-06
1.27039e-07
5.19458e-06
8.45484e-08
5.19791e-06
8.5429e-08
5.19439e-06
9.81025e-08
5.18943e-06
8.01311e-08
5.18881e-06
7.76601e-08
5.18916e-06
9.23713e-08
1.03388e-07
5.18806e-06
5.46257e-06
1.50972e-07
5.45753e-06
-7.21568e-08
5.45526e-06
-1.49736e-07
5.44722e-06
5.20177e-08
5.46292e-06
1.37566e-07
5.45723e-06
-1.28756e-08
5.45362e-06
-2.46198e-08
5.44869e-06
-7.92665e-08
5.44381e-06
-5.16784e-08
5.44565e-06
7.58219e-08
5.44116e-06
2.53116e-08
5.44496e-06
6.81643e-08
5.44437e-06
1.27625e-07
5.44187e-06
8.70532e-08
5.44523e-06
8.20668e-08
5.4431e-06
1.00228e-07
5.43797e-06
8.52683e-08
5.43697e-06
7.86545e-08
5.43784e-06
9.15038e-08
1.03476e-07
5.43775e-06
5.72374e-06
1.43186e-07
5.71763e-06
-6.60399e-08
5.71641e-06
-1.48521e-07
5.7092e-06
5.92274e-08
5.72287e-06
1.23895e-07
5.719e-06
-9.00101e-09
5.71388e-06
-1.94991e-08
5.70921e-06
-7.46022e-08
5.70487e-06
-4.7338e-08
5.70588e-06
7.4814e-08
5.70113e-06
3.00637e-08
5.70451e-06
6.47838e-08
5.70455e-06
1.27583e-07
5.70126e-06
9.03441e-08
5.70434e-06
7.8987e-08
5.7037e-06
1.0087e-07
5.69863e-06
9.0341e-08
5.69716e-06
8.01248e-08
5.69829e-06
9.03709e-08
1.0264e-07
5.69912e-06
5.99737e-06
1.35005e-07
5.99022e-06
-5.88849e-08
5.98983e-06
-1.4813e-07
5.98399e-06
6.50619e-08
5.99532e-06
1.12567e-07
5.99308e-06
-6.75871e-09
5.98688e-06
-1.32973e-08
5.9819e-06
-6.96283e-08
5.97816e-06
-4.35934e-08
5.97841e-06
7.45609e-08
5.97325e-06
3.52212e-08
5.97637e-06
6.16703e-08
5.97731e-06
1.26642e-07
5.97339e-06
9.42649e-08
5.97585e-06
7.65226e-08
5.97666e-06
1.00059e-07
5.97199e-06
9.502e-08
5.96995e-06
8.21628e-08
5.97118e-06
8.91349e-08
1.01118e-07
5.97271e-06
6.28404e-06
1.26453e-07
6.27594e-06
-5.07818e-08
6.27608e-06
-1.48269e-07
6.27204e-06
6.90981e-08
6.28093e-06
1.03681e-07
6.28001e-06
-5.84079e-09
6.27318e-06
-6.46461e-09
6.26739e-06
-6.38388e-08
6.26415e-06
-4.03601e-08
6.26381e-06
7.48997e-08
6.25816e-06
4.08771e-08
6.26112e-06
5.87058e-08
6.26318e-06
1.24588e-07
6.2589e-06
9.85393e-08
6.26043e-06
7.49941e-08
6.26251e-06
9.79765e-08
6.25861e-06
9.89176e-08
6.25598e-06
8.47931e-08
6.25716e-06
8.79556e-08
9.91152e-08
6.25917e-06
6.58435e-06
1.17571e-07
6.57544e-06
-4.18739e-08
6.57579e-06
-1.48611e-07
6.57382e-06
7.1066e-08
6.58037e-06
9.71279e-08
6.58045e-06
-5.91818e-09
6.57335e-06
6.33995e-10
6.56641e-06
-5.68988e-08
6.56349e-06
-3.74451e-08
6.56291e-06
7.54876e-08
6.55676e-06
4.7022e-08
6.55945e-06
5.60142e-08
6.56271e-06
1.21327e-07
6.55844e-06
1.0281e-07
6.5588e-06
7.4639e-08
6.5618e-06
9.49727e-08
6.55907e-06
1.01653e-07
6.55596e-06
8.79056e-08
6.55686e-06
8.70487e-08
9.67646e-08
6.55921e-06
6.89894e-06
1.08419e-07
6.88943e-06
-3.23571e-08
6.88961e-06
-1.48792e-07
6.88988e-06
7.07969e-08
6.89434e-06
9.26589e-08
6.89512e-06
-6.69625e-09
6.88806e-06
7.69347e-09
6.87974e-06
-4.85712e-08
6.87698e-06
-3.46887e-08
6.87662e-06
7.58516e-08
6.87007e-06
5.35694e-08
6.8721e-06
5.39808e-08
6.87652e-06
1.16911e-07
6.87264e-06
1.06691e-07
6.87173e-06
7.55464e-08
6.8752e-06
9.15018e-08
6.87387e-06
1.02981e-07
6.87057e-06
9.12094e-08
6.87098e-06
8.66394e-08
9.4205e-08
6.87354e-06
7.22848e-06
9.90757e-08
7.21859e-06
-2.24689e-08
7.21823e-06
-1.48435e-07
7.22079e-06
6.82414e-08
7.2236e-06
8.98517e-08
7.22475e-06
-7.84515e-09
7.21804e-06
1.44027e-08
7.20814e-06
-3.86777e-08
7.20533e-06
-3.18741e-08
7.20561e-06
7.55698e-08
7.19881e-06
6.03679e-08
7.19985e-06
5.29451e-08
7.2052e-06
1.11557e-07
7.20208e-06
1.09816e-07
7.20002e-06
7.76022e-08
7.20345e-06
8.80676e-08
7.20358e-06
1.02852e-07
7.20049e-06
9.43007e-08
7.20029e-06
8.68434e-08
9.16607e-08
7.20283e-06
7.57366e-06
8.96424e-08
7.56366e-06
-1.24745e-08
7.56238e-06
-1.47155e-07
7.5672e-06
6.34253e-08
7.56878e-06
8.82733e-08
7.56999e-06
-9.05732e-09
7.56397e-06
2.04241e-08
7.55249e-06
-2.72029e-08
7.54928e-06
-2.8657e-08
7.55047e-06
7.43737e-08
7.54373e-06
6.71164e-08
7.54351e-06
5.31583e-08
7.54944e-06
1.05627e-07
7.54739e-06
1.11864e-07
7.54446e-06
8.05354e-08
7.54738e-06
8.5146e-08
7.54883e-06
1.01403e-07
7.54636e-06
9.67715e-08
7.54561e-06
8.75988e-08
8.94068e-08
7.54786e-06
7.93521e-06
8.02414e-08
7.92541e-06
-2.67357e-09
7.9228e-06
-1.44543e-07
7.92977e-06
5.64591e-08
7.93048e-06
8.75606e-08
7.93142e-06
-1.00015e-08
7.92653e-06
2.53203e-08
7.91377e-06
-1.4451e-08
7.90956e-06
-2.44436e-08
7.9118e-06
7.21352e-08
7.90551e-06
7.34048e-08
7.90395e-06
5.47195e-08
7.91002e-06
9.95534e-08
7.90925e-06
1.1264e-07
7.90579e-06
8.39953e-08
7.9079e-06
8.30291e-08
7.91035e-06
9.89586e-08
7.90881e-06
9.83144e-08
7.90773e-06
8.86783e-08
8.76643e-08
7.90947e-06
8.31391e-06
7.10108e-08
8.30462e-06
6.6158e-09
8.30033e-06
-1.4025e-07
8.30918e-06
4.7609e-08
8.30942e-06
8.73202e-08
8.30968e-06
-1.02573e-08
8.30628e-06
2.87151e-08
8.29283e-06
-1.00393e-09
8.28711e-06
-1.87245e-08
8.29019e-06
6.9056e-08
8.28484e-06
7.87633e-08
8.28205e-06
5.75058e-08
8.2878e-06
9.38007e-08
8.28833e-06
1.12111e-07
8.28474e-06
8.7581e-08
8.28592e-06
8.1851e-08
8.28897e-06
9.59093e-08
8.28849e-06
9.8793e-08
8.28741e-06
8.97665e-08
8.64984e-08
8.28857e-06
8.71057e-06
6.2104e-08
8.70214e-06
1.50493e-08
8.69591e-06
-1.34026e-07
8.70622e-06
3.73048e-08
8.7064e-06
8.71308e-08
8.70545e-06
-9.30038e-09
8.7037e-06
3.04623e-08
8.69044e-06
1.22529e-08
8.68299e-06
-1.12693e-08
8.68643e-06
6.56121e-08
8.68237e-06
8.28225e-08
8.67867e-06
6.12096e-08
8.68371e-06
8.87636e-08
8.68541e-06
1.1041e-07
8.68211e-06
9.08809e-08
8.68233e-06
8.16309e-08
8.68561e-06
9.26312e-08
8.68617e-06
9.82288e-08
8.68537e-06
9.05619e-08
8.58024e-08
8.68607e-06
9.12604e-06
5.36836e-08
9.11881e-06
2.22761e-08
9.1105e-06
-1.25711e-07
9.12181e-06
2.59917e-08
9.12218e-06
8.67619e-08
9.11956e-06
-6.68424e-09
9.11933e-06
3.06967e-08
9.10722e-06
2.4358e-08
9.09825e-06
-2.29316e-09
9.10144e-06
6.24237e-08
9.09883e-06
8.54318e-08
9.09466e-06
6.5379e-08
9.0987e-06
8.47215e-08
9.10133e-06
1.07783e-07
9.09865e-06
9.35611e-08
9.09804e-06
8.22368e-08
9.10119e-06
8.94786e-08
9.10269e-06
9.67332e-08
9.1024e-06
9.0852e-08
8.53569e-08
9.10285e-06
9.56123e-06
4.59133e-08
9.55556e-06
2.79443e-08
9.54508e-06
-1.15225e-07
9.55689e-06
1.41827e-08
9.55768e-06
8.59638e-08
9.55304e-06
-2.04008e-09
9.55387e-06
2.98621e-08
9.54384e-06
3.43882e-08
9.53391e-06
7.6424e-09
9.53625e-06
6.00844e-08
9.53503e-06
8.66517e-08
9.53081e-06
6.95923e-08
9.53378e-06
8.17607e-08
9.53703e-06
1.04532e-07
9.53517e-06
9.54141e-08
9.53399e-06
8.34194e-08
9.53672e-06
8.67453e-08
9.53896e-06
9.44993e-08
9.53929e-06
9.05201e-08
8.49001e-08
9.53975e-06
1.00171e-05
3.89394e-08
1.00133e-05
3.17834e-08
1.00008e-05
-1.02736e-07
1.00124e-05
2.61157e-09
1.00142e-05
8.41308e-08
1.00074e-05
4.74107e-09
1.00086e-05
2.8678e-08
1.00011e-05
4.18682e-08
9.99088e-06
1.78656e-08
9.99205e-06
5.89184e-08
9.99187e-06
8.68341e-08
9.98795e-06
7.35086e-08
9.98994e-06
7.97677e-08
9.99347e-06
1.01002e-07
9.99258e-06
9.63079e-08
9.99111e-06
8.48881e-08
9.99325e-06
8.46052e-08
9.99596e-06
9.17906e-08
9.99693e-06
8.95503e-08
8.41932e-08
9.99764e-06
1.04947e-05
3.28717e-08
1.04928e-05
3.36495e-08
1.04788e-05
-8.86903e-08
1.04892e-05
-7.78522e-09
1.04927e-05
8.06708e-08
1.04843e-05
1.30892e-08
1.04848e-05
2.82241e-08
1.04798e-05
4.6817e-08
1.04701e-05
2.75758e-08
1.047e-05
5.90283e-08
1.04704e-05
8.6447e-08
1.0467e-05
7.68774e-08
1.04682e-05
7.86061e-08
1.04717e-05
9.7444e-08
1.04718e-05
9.62536e-08
1.04703e-05
8.63215e-08
1.04718e-05
8.31088e-08
1.04748e-05
8.88726e-08
1.04763e-05
8.80286e-08
8.30864e-08
1.04774e-05
1.09951e-05
2.77765e-08
1.09952e-05
3.35869e-08
1.09802e-05
-7.37469e-08
1.09885e-05
-1.6097e-08
1.09939e-05
7.52872e-08
1.09849e-05
2.21457e-08
1.09837e-05
2.93528e-08
1.09809e-05
4.96636e-08
1.09724e-05
3.60774e-08
1.09712e-05
6.02578e-08
1.09717e-05
8.5865e-08
1.09689e-05
7.96861e-08
1.09695e-05
7.80809e-08
1.09729e-05
9.40158e-08
1.09738e-05
9.53704e-08
1.09727e-05
8.74209e-08
1.09736e-05
8.22023e-08
1.09765e-05
8.59648e-08
1.09784e-05
8.6091e-08
8.15948e-08
1.09799e-05
1.15195e-05
2.36644e-08
1.15212e-05
3.18342e-08
1.15062e-05
-5.86702e-08
1.15117e-05
-2.16002e-08
1.15189e-05
6.80799e-08
1.15102e-05
3.08124e-08
1.1507e-05
3.25161e-08
1.15055e-05
5.12205e-08
1.14986e-05
4.29517e-08
1.14967e-05
6.21643e-08
1.14972e-05
8.53625e-08
1.14948e-05
8.20625e-08
1.14949e-05
7.79999e-08
1.14981e-05
9.08548e-08
1.14996e-05
9.37866e-08
1.14991e-05
8.79878e-08
1.14996e-05
8.17032e-08
1.15023e-05
8.32647e-08
1.15045e-05
8.38215e-08
7.98631e-08
1.15063e-05
1.2069e-05
2.04858e-08
1.20721e-05
2.87808e-08
1.20576e-05
-4.42253e-08
1.20599e-05
-2.3921e-08
1.20685e-05
5.95127e-08
1.20611e-05
3.81912e-08
1.20561e-05
3.75022e-08
1.20548e-05
5.25702e-08
1.20496e-05
4.81202e-08
1.20477e-05
6.41112e-08
1.20479e-05
8.51005e-08
1.20459e-05
8.40926e-08
1.20456e-05
7.82911e-08
1.20484e-05
8.80426e-08
1.20505e-05
9.16623e-08
1.20506e-05
8.79337e-08
1.2051e-05
8.13497e-08
1.20533e-05
8.09308e-08
1.20558e-05
8.12811e-08
7.80151e-08
1.20577e-05
1.26449e-05
1.81412e-08
1.26488e-05
2.49187e-08
1.26357e-05
-3.10772e-08
1.26348e-05
-2.30409e-08
1.26437e-05
5.05738e-08
1.26385e-05
4.33671e-08
1.26323e-05
4.37725e-08
1.26302e-05
5.45848e-08
1.26265e-05
5.18306e-08
1.2625e-05
6.56304e-08
1.26252e-05
8.49378e-08
1.26234e-05
8.58372e-08
1.26228e-05
7.89516e-08
1.26252e-05
8.56172e-08
1.26277e-05
8.91903e-08
1.26284e-05
8.7203e-08
1.26288e-05
8.09244e-08
1.26308e-05
7.89833e-08
1.26335e-05
7.85992e-08
7.60526e-08
1.26354e-05
1.32486e-05
1.64959e-08
1.32528e-05
2.07123e-08
1.32413e-05
-1.96194e-08
1.32376e-05
-1.93391e-08
1.32457e-05
4.24708e-08
1.32432e-05
4.58939e-08
1.32366e-05
5.03671e-08
1.32335e-05
5.76976e-08
1.32306e-05
5.47625e-08
1.32298e-05
6.643e-08
1.32302e-05
8.44751e-08
1.32287e-05
8.73565e-08
1.32277e-05
7.99104e-08
1.32297e-05
8.36691e-08
1.32323e-05
8.65736e-08
1.32337e-05
8.58402e-08
1.32344e-05
8.02429e-08
1.3236e-05
7.73232e-08
1.32387e-05
7.59391e-08
7.39171e-08
1.32408e-05
1.38813e-05
1.53826e-08
1.38853e-05
1.66705e-08
1.38758e-05
-1.00816e-08
1.387e-05
-1.352e-08
1.3876e-05
3.63837e-08
1.3876e-05
4.59912e-08
1.38703e-05
5.60645e-08
1.38661e-05
6.18399e-08
1.38631e-05
5.77409e-08
1.38631e-05
6.65078e-08
1.38641e-05
8.33882e-08
1.3863e-05
8.84763e-08
1.38619e-05
8.10357e-08
1.38633e-05
8.22897e-08
1.38659e-05
8.39728e-08
1.38677e-05
8.39853e-08
1.38688e-05
7.91795e-08
1.38703e-05
7.57934e-08
1.38729e-05
7.34113e-08
7.16291e-08
1.38751e-05
1.45444e-05
1.46341e-08
1.45477e-05
1.33713e-08
1.45402e-05
-2.54654e-09
1.45331e-05
-6.47344e-09
1.45365e-05
3.30065e-08
1.45381e-05
4.44338e-08
1.45342e-05
5.9943e-08
1.45296e-05
6.6451e-08
1.45261e-05
6.12227e-08
1.45263e-05
6.63296e-08
1.45281e-05
8.15844e-08
1.45277e-05
8.88063e-08
1.45265e-05
8.22576e-08
1.45274e-05
8.14256e-08
1.45298e-05
8.15709e-08
1.45319e-05
8.18317e-08
1.45335e-05
7.76639e-08
1.4535e-05
7.42629e-08
1.45374e-05
7.10003e-08
6.92474e-08
1.45398e-05
1.52394e-05
1.41067e-08
1.52416e-05
1.11325e-08
1.52358e-05
3.28463e-09
1.52286e-05
7.90861e-10
1.52292e-05
3.23416e-08
1.52312e-05
4.24394e-08
1.52295e-05
6.16773e-08
1.52253e-05
7.06598e-08
1.52212e-05
6.52759e-08
1.52209e-05
6.66087e-08
1.52234e-05
7.91686e-08
1.52241e-05
8.80784e-08
1.52231e-05
8.32794e-08
1.52235e-05
8.09504e-08
1.52256e-05
7.95415e-08
1.52279e-05
7.95105e-08
1.52298e-05
7.5788e-08
1.52314e-05
7.26052e-08
1.52337e-05
6.86998e-08
6.67779e-08
1.52362e-05
1.59677e-05
1.37038e-08
1.59688e-05
1.00205e-08
1.59643e-05
7.85838e-09
1.59576e-05
7.48207e-09
1.59561e-05
3.37952e-08
1.59574e-05
4.11444e-08
1.59575e-05
6.15762e-08
1.59545e-05
7.37062e-08
1.59501e-05
6.9661e-08
1.5949e-05
6.77043e-08
1.59515e-05
7.66378e-08
1.59533e-05
8.63433e-08
1.5953e-05
8.35842e-08
1.59531e-05
8.08285e-08
1.59548e-05
7.78148e-08
1.59571e-05
7.72515e-08
1.59592e-05
7.36387e-08
1.59611e-05
7.07301e-08
1.59633e-05
6.65077e-08
6.42047e-08
1.59659e-05
1.67309e-05
1.33673e-08
1.6731e-05
9.93555e-09
1.67273e-05
1.16138e-08
1.67216e-05
1.31979e-08
1.67188e-05
3.65471e-08
1.67188e-05
4.11878e-08
1.672e-05
6.03671e-08
1.67185e-05
7.52185e-08
1.67142e-05
7.38666e-08
1.67124e-05
6.96017e-08
1.67143e-05
7.46469e-08
1.67168e-05
8.38415e-08
1.67175e-05
8.29104e-08
1.67177e-05
8.06937e-08
1.6719e-05
7.64224e-08
1.67212e-05
7.51108e-08
1.67234e-05
7.13879e-08
1.67256e-05
6.86083e-08
1.67277e-05
6.436e-08
6.16159e-08
1.67303e-05
1.75307e-05
1.30682e-08
1.75301e-05
1.0538e-08
1.75268e-05
1.49145e-08
1.7522e-05
1.79197e-08
1.75186e-05
3.99593e-08
1.75172e-05
4.25822e-08
1.75186e-05
5.89722e-08
1.75186e-05
7.52674e-08
1.75152e-05
7.72016e-08
1.75127e-05
7.21416e-08
1.75138e-05
7.35327e-08
1.75166e-05
8.10316e-08
1.75181e-05
8.13984e-08
1.75188e-05
8.00134e-08
1.75199e-05
7.53768e-08
1.75219e-05
7.30477e-08
1.75241e-05
6.91754e-08
1.75264e-05
6.63019e-08
1.75287e-05
6.21325e-08
5.91237e-08
1.75312e-05
1.83686e-05
1.28127e-08
1.83676e-05
1.15799e-08
1.83645e-05
1.79813e-08
1.83607e-05
2.17475e-08
1.83572e-05
4.34305e-08
1.83546e-05
4.51315e-08
1.83555e-05
5.81082e-08
1.83565e-05
7.42416e-08
1.83545e-05
7.92448e-08
1.83517e-05
7.49236e-08
1.83519e-05
7.33151e-08
1.83545e-05
7.84677e-08
1.83566e-05
7.92807e-08
1.8358e-05
7.86487e-08
1.83591e-05
7.42624e-08
1.83609e-05
7.12498e-08
1.83631e-05
6.69171e-08
1.83654e-05
6.39964e-08
1.83678e-05
5.97338e-08
5.67105e-08
1.83703e-05
1.92466e-05
1.26372e-08
1.92453e-05
1.28248e-08
1.92423e-05
2.10371e-08
1.92392e-05
2.48182e-08
1.92361e-05
4.6514e-08
1.92328e-05
4.84573e-08
1.92327e-05
5.8179e-08
1.92343e-05
7.2661e-08
1.92335e-05
8.00235e-08
1.92311e-05
7.73437e-08
1.92306e-05
7.38555e-08