/*--------------------------------*- C++ -*----------------------------------*\
| =========                 |                                                 |
| \\      /  F ield         | OpenFOAM: The Open Source CFD Toolbox           |
|  \\    /   O peration     | Version:  3.0.1                                 |
|   \\  /    A nd           | Web:      www.OpenFOAM.org                      |
|    \\/     M anipulation  |                                                 |
\*---------------------------------------------------------------------------*/
FoamFile
{
    version     2.0;
    format      ascii;
    class       volVectorField;
    location    "1.3";
    object      U;
}
// * * * * * * * * * * * * * * * * * * * * * * * * * * * * * * * * * * * * * //

dimensions      [0 1 -1 0 0 0 0];

internalField   nonuniform List<vector> 
9600
(
(0.864786 0.002952 0)
(1.14784 -0.00241895 0)
(0.820633 -0.00423555 0)
(1.15611 0.00224435 0)
(0.89064 0.00462923 0)
(1.0741 -0.00443039 0)
(0.860964 0.00373448 0)
(1.14918 -0.00667651 0)
(0.839536 -0.00192155 0)
(1.15779 0.00342746 0)
(0.857647 -0.0030822 0)
(1.11419 0.00387484 0)
(0.874466 0.00284406 0)
(1.09649 0.00896416 0)
(0.881775 0.000523293 0)
(1.09329 0.00242977 0)
(0.87736 -0.000787316 0)
(1.10185 -0.00326216 0)
(0.869911 0.000245169 0)
(1.10523 -0.0089105 0)
(0.874169 0.00279271 0)
(1.13389 -0.00191448 0)
(0.834433 -0.00450786 0)
(1.14286 0.00180312 0)
(0.904163 0.0052062 0)
(1.06143 -0.00387336 0)
(0.876419 0.0026464 0)
(1.12771 -0.00618395 0)
(0.860668 -0.00240263 0)
(1.13275 0.00344714 0)
(0.888323 -0.0026176 0)
(1.08702 0.00385644 0)
(0.910043 0.00301273 0)
(1.05983 0.00896313 0)
(0.933807 0.000504427 0)
(1.04043 0.00248546 0)
(0.950228 -0.000819794 0)
(1.02379 -0.00355877 0)
(0.970164 0.000744331 0)
(0.992639 -0.0103075 0)
(0.892349 0.00267665 0)
(1.11023 -0.00148797 0)
(0.86106 -0.00476955 0)
(1.11666 0.00141684 0)
(0.927489 0.0058193 0)
(1.04168 -0.00350409 0)
(0.903894 0.00176025 0)
(1.09506 -0.00582869 0)
(0.899049 -0.00263829 0)
(1.09129 0.00326777 0)
(0.933572 -0.00208062 0)
(1.04611 0.00360854 0)
(0.951343 0.0034205 0)
(1.01993 0.0085549 0)
(0.973222 0.000980411 0)
(1.00386 0.0020285 0)
(0.983723 -0.000397746 0)
(0.995396 -0.00401242 0)
(0.989851 0.00139574 0)
(0.987447 -0.00766923 0)
(0.916265 0.00262464 0)
(1.08154 -0.00118647 0)
(0.895443 -0.00492782 0)
(1.08328 0.00103716 0)
(0.953118 0.00632496 0)
(1.02154 -0.00320704 0)
(0.935017 0.00116801 0)
(1.06102 -0.00572394 0)
(0.939733 -0.00265034 0)
(1.05105 0.00287452 0)
(0.971156 -0.00150602 0)
(1.01459 0.00340843 0)
(0.975827 0.00378835 0)
(0.999364 0.00817964 0)
(0.988173 0.00124904 0)
(0.993225 0.00174639 0)
(0.990938 -0.000160793 0)
(0.992087 -0.00422496 0)
(0.990396 0.00171866 0)
(0.989887 -0.00658283 0)
(0.941601 0.00261508 0)
(1.05326 -0.000986884 0)
(0.93005 -0.00500246 0)
(1.05069 0.000664656 0)
(0.974357 0.00674785 0)
(1.00661 -0.00296936 0)
(0.961777 0.000740617 0)
(1.03389 -0.00577826 0)
(0.970161 -0.00254662 0)
(1.02377 0.00250175 0)
(0.992053 -0.00102004 0)
(0.99969 0.00339405 0)
(0.986143 0.00402152 0)
(0.993994 0.00791977 0)
(0.993643 0.00142578 0)
(0.992948 0.00157003 0)
(0.993913 -8.14547e-06 0)
(0.993044 -0.00427475 0)
(0.991707 0.00186025 0)
(0.990593 -0.00576165 0)
(0.96418 0.00263312 0)
(1.03008 -0.000873776 0)
(0.958716 -0.00501557 0)
(1.02513 0.000373236 0)
(0.988105 0.00704999 0)
(0.99873 -0.00281319 0)
(0.980542 0.000451274 0)
(1.01667 -0.00587394 0)
(0.987233 -0.00242747 0)
(1.00965 0.00224172 0)
(0.999907 -0.000674625 0)
(0.995336 0.00349135 0)
(0.990755 0.00415403 0)
(0.994766 0.00769344 0)
(0.997179 0.00155944 0)
(0.995103 0.00140336 0)
(0.996557 0.000141278 0)
(0.994751 -0.00424445 0)
(0.993214 0.00192209 0)
(0.991696 -0.00481203 0)
(0.981283 0.00266113 0)
(1.01438 -0.000821279 0)
(0.978787 -0.00498633 0)
(1.00876 0.000186396 0)
(0.995049 0.007211 0)
(0.996343 -0.00272452 0)
(0.991903 0.000271717 0)
(1.00763 -0.00594758 0)
(0.994359 -0.00233329 0)
(1.00322 0.00207763 0)
(1.00119 -0.000432631 0)
(0.994648 0.00358292 0)
(0.993523 0.00421995 0)
(0.996974 0.0074563 0)
(0.999743 0.00167935 0)
(0.997331 0.00125396 0)
(0.998449 0.000300224 0)
(0.996325 -0.00413583 0)
(0.994192 0.0019476 0)
(0.992622 -0.00379325 0)
(0.992233 0.00268239 0)
(1.00579 -0.000801392 0)
(0.990815 -0.00493314 0)
(1.00014 9.01879e-05 0)
(0.997771 0.00725793 0)
(0.996816 -0.00268771 0)
(0.99811 0.00016531 0)
(1.00355 -0.00597133 0)
(0.996209 -0.00225257 0)
(0.999934 0.00196973 0)
(1.00015 -0.00025406 0)
(0.994506 0.00361717 0)
(0.995161 0.00423783 0)
(0.998839 0.00720855 0)
(1.00128 0.00180222 0)
(0.998864 0.00113283 0)
(0.999537 0.000459115 0)
(0.997342 -0.00394006 0)
(0.994723 0.00194858 0)
(0.993108 -0.0027551 0)
(0.99801 0.00268837 0)
(1.00226 -0.000796163 0)
(0.996972 -0.00486527 0)
(0.996368 5.64645e-05 0)
(0.99868 0.00722955 0)
(0.998232 -0.00268709 0)
(1.00115 0.000108085 0)
(1.00193 -0.00594199 0)
(0.996015 -0.00216732 0)
(0.997831 0.001891 0)
(0.998708 -0.00011711 0)
(0.994241 0.0035984 0)
(0.995879 0.00421953 0)
(0.999876 0.00695367 0)
(1.00198 0.00192951 0)
(0.999657 0.00103774 0)
(1.00002 0.000599862 0)
(0.997866 -0.00366139 0)
(0.994957 0.00192438 0)
(0.993322 -0.00173312 0)
(1.00033 0.00267884 0)
(1.00152 -0.000797717 0)
(0.999577 -0.00478336 0)
(0.994958 5.45937e-05 0)
(0.999122 0.00715473 0)
(0.999688 -0.00270285 0)
(1.00232 8.30002e-05 0)
(1.00136 -0.00587163 0)
(0.995335 -0.00206954 0)
(0.996426 0.00182762 0)
(0.997589 -8.96195e-06 0)
(0.993957 0.00354595 0)
(0.996042 0.00417438 0)
(1.00022 0.00669331 0)
(1.00213 0.00205457 0)
(0.999954 0.000971415 0)
(1.00012 0.000717422 0)
(0.998084 -0.00331586 0)
(0.995026 0.00188281 0)
(0.993414 -0.000759289 0)
(1.00082 0.00265765 0)
(1.00193 -0.000802922 0)
(1.00036 -0.00468626 0)
(0.994472 6.15855e-05 0)
(0.999548 0.00704932 0)
(1.00088 -0.00271755 0)
(1.00243 7.88698e-05 0)
(1.00116 -0.00577574 0)
(0.994725 -0.00195746 0)
(0.995609 0.00177224 0)
(0.996996 7.81234e-05 0)
(0.993816 0.00347845 0)
(0.996009 0.00411129 0)
(1.0002 0.00643491 0)
(1.00202 0.00216298 0)
(0.999995 0.000935323 0)
(1.00003 0.000809602 0)
(0.998133 -0.00291653 0)
(0.995023 0.00182553 0)
(0.993454 0.000156405 0)
(1.00055 0.00262906 0)
(1.00262 -0.000810465 0)
(1.00038 -0.0045739 0)
(0.994294 6.48881e-05 0)
(0.999994 0.00692185 0)
(1.00174 -0.00271979 0)
(1.00205 8.8251e-05 0)
(1.00106 -0.00566596 0)
(0.994324 -0.00183819 0)
(0.995244 0.00172068 0)
(0.996867 0.000146734 0)
(0.99387 0.00340972 0)
(0.996 0.00403835 0)
(1.00007 0.00618642 0)
(1.00182 0.00224325 0)
(0.999934 0.000928182 0)
(0.999843 0.000886112 0)
(0.998095 -0.00248322 0)
(0.995003 0.00177516 0)
(0.993479 0.000991905 0)
(1.00012 0.00259603 0)
(1.0032 -0.000819563 0)
(1.00016 -0.00444795 0)
(0.994222 5.99666e-05 0)
(1.00039 0.00677753 0)
(1.00229 -0.0027049 0)
(1.00155 0.000106074 0)
(1.00093 -0.00554794 0)
(0.994133 -0.00172276 0)
(0.995166 0.00167042 0)
(0.997027 0.000198659 0)
(0.994071 0.00334948 0)
(0.996078 0.00395753 0)
(0.99996 0.00595175 0)
(1.00162 0.00230122 0)
(0.999844 0.000948265 0)
(0.999638 0.000944614 0)
(0.998018 -0.00204236 0)
(0.994996 0.00176852 0)
(0.993509 0.001706 0)
(0.999759 0.00256023 0)
(1.00359 -0.00082963 0)
(0.999939 -0.00431119 0)
(0.994205 4.68321e-05 0)
(1.0007 0.00661987 0)
(1.0026 -0.00267289 0)
(1.00112 0.000127837 0)
(1.00079 -0.0054237 0)
(0.994109 -0.00161647 0)
(0.995234 0.00162269 0)
(0.997301 0.000234099 0)
(0.994339 0.00330551 0)
(0.996219 0.0038652 0)
(0.999896 0.00573552 0)
(1.00144 0.00234093 0)
(0.99975 0.000993649 0)
(0.999442 0.000995256 0)
(0.997938 -0.00160763 0)
(0.995021 0.00181078 0)
(0.993566 0.00229932 0)
(0.999526 0.00252259 0)
(1.00378 -0.000840438 0)
(0.999796 -0.00416618 0)
(0.994239 2.77714e-05 0)
(1.00088 0.00645173 0)
(1.00272 -0.00262637 0)
(1.00082 0.000151556 0)
(1.00064 -0.00529255 0)
(0.994194 -0.00152312 0)
(0.995355 0.00158269 0)
(0.997573 0.000250819 0)
(0.994604 0.00327862 0)
(0.996379 0.00376363 0)
(0.999858 0.00553742 0)
(1.00128 0.00236541 0)
(0.999661 0.0010543 0)
(0.99927 0.00106459 0)
(0.997876 -0.00119457 0)
(0.995091 0.0018987 0)
(0.993664 0.0028027 0)
(0.999405 0.00248359 0)
(1.00384 -0.000851741 0)
(0.999728 -0.00401538 0)
(0.994322 5.70272e-06 0)
(1.00097 0.00627546 0)
(1.00273 -0.00256845 0)
(1.00063 0.00017411 0)
(1.00053 -0.00515198 0)
(0.99434 -0.00144476 0)
(0.995477 0.00155438 0)
(0.997792 0.000248395 0)
(0.99483 0.00326733 0)
(0.996528 0.00365384 0)
(0.999825 0.00535276 0)
(1.00113 0.00238694 0)
(0.999581 0.001126 0)
(0.999128 0.00115773 0)
(0.997844 -0.000804644 0)
(0.995213 0.00201918 0)
(0.993809 0.00323696 0)
(0.999358 0.0024435 0)
(1.00381 -0.000863401 0)
(0.999711 -0.00386099 0)
(0.994446 -1.66496e-05 0)
(1.00098 0.00609215 0)
(1.00266 -0.00250045 0)
(1.00052 0.000190112 0)
(1.00046 -0.00499916 0)
(0.994514 -0.00138369 0)
(0.99558 0.00154167 0)
(0.997955 0.000226688 0)
(0.995011 0.00327143 0)
(0.996657 0.00353488 0)
(0.99979 0.00517903 0)
(1.00098 0.00240849 0)
(0.999513 0.00119204 0)
(0.999019 0.00128343 0)
(0.997845 -0.000430123 0)
(0.995385 0.00215278 0)
(0.993996 0.00361758 0)
(0.99935 0.00240255 0)
(1.00374 -0.000875441 0)
(0.999718 -0.00370468 0)
(0.9946 -3.77e-05 0)
(1.00095 0.00590324 0)
(1.00255 -0.0024246 0)
(1.00045 0.000198302 0)
(1.00041 -0.00483311 0)
(0.994699 -0.0013403 0)
(0.995659 0.00154569 0)
(0.998077 0.000190183 0)
(0.995156 0.00328408 0)
(0.996767 0.00341342 0)
(0.999754 0.00500789 0)
(1.00084 0.00243727 0)
(0.999459 0.00123842 0)
(0.998939 0.00143873 0)
(0.997873 -6.2255e-05 0)
(0.995598 0.00228156 0)
(0.99422 0.00395579 0)
(0.999356 0.00236076 0)
(1.00364 -0.000887646 0)
(0.999732 -0.00354772 0)
(0.994771 -5.62584e-05 0)
(1.00091 0.0057088 0)
(1.00243 -0.00234007 0)
(1.0004 0.000196511 0)
(1.00039 -0.00465224 0)
(0.994891 -0.00131486 0)
(0.995722 0.0015674 0)
(0.998175 0.000139515 0)
(0.995281 0.00330206 0)
(0.996861 0.00329652 0)
(0.999721 0.00482733 0)
(1.0007 0.00249324 0)
(0.999419 0.00127287 0)
(0.998886 0.00160684 0)
(0.99792 0.000296169 0)
(0.995841 0.00239493 0)
(0.994473 0.00425124 0)
(0.999364 0.00231805 0)
(1.00355 -0.000899962 0)
(0.999746 -0.00339027 0)
(0.99495 -7.04597e-05 0)
(1.00086 0.00550755 0)
(1.00231 -0.00224523 0)
(1.00035 0.000183339 0)
(1.00037 -0.00445438 0)
(0.995086 -0.00130728 0)
(0.995775 0.00160749 0)
(0.998263 7.71684e-05 0)
(0.995399 0.00331948 0)
(0.996942 0.00319062 0)
(0.999694 0.00463338 0)
(1.00056 0.00257632 0)
(0.999388 0.00130113 0)
(0.998855 0.00177184 0)
(0.997978 0.000654218 0)
(0.996103 0.00248737 0)
(0.994748 0.00449853 0)
(0.999366 0.00227438 0)
(1.00346 -0.000912258 0)
(0.999757 -0.00323298 0)
(0.995131 -8.01275e-05 0)
(1.00081 0.0053005 0)
(1.00219 -0.00214208 0)
(1.0003 0.000158836 0)
(1.00035 -0.00423929 0)
(0.995282 -0.00131429 0)
(0.995825 0.00166074 0)
(0.998348 1.12836e-05 0)
(0.995521 0.00332799 0)
(0.997014 0.00310657 0)
(0.999676 0.00441279 0)
(1.00043 0.00268288 0)
(0.999365 0.0013244 0)
(0.998842 0.00192216 0)
(0.998042 0.00103206 0)
(0.996374 0.00256325 0)
(0.995042 0.00468756 0)
(0.999364 0.00222977 0)
(1.00338 -0.000924296 0)
(0.999765 -0.00307745 0)
(0.995312 -8.49018e-05 0)
(1.00076 0.00508597 0)
(1.00209 -0.00202796 0)
(1.00025 0.000120833 0)
(1.00033 -0.00400748 0)
(0.99548 -0.00133469 0)
(0.995874 0.0017264 0)
(0.998432 -5.29449e-05 0)
(0.995652 0.00331944 0)
(0.997079 0.00305121 0)
(0.999669 0.0041648 0)
(1.0003 0.0028059 0)
(0.999346 0.00136213 0)
(0.998851 0.00204141 0)
(0.998108 0.00142262 0)
(0.996644 0.00264728 0)
(0.995354 0.00481647 0)
(0.999358 0.00218416 0)
(1.0033 -0.000936467 0)
(0.999773 -0.00292332 0)
(0.995492 -8.31209e-05 0)
(1.00072 0.00486338 0)
(1.00198 -0.00190178 0)
(1.00021 6.89674e-05 0)
(1.00031 -0.0037614 0)
(0.995677 -0.00136636 0)
(0.995925 0.00179814 0)
(0.998516 -0.000109486 0)
(0.995794 0.00328026 0)
(0.997137 0.00303017 0)
(0.999674 0.0039044 0)
(1.00017 0.00293176 0)
(0.999327 0.00143467 0)
(0.998879 0.00211892 0)
(0.998179 0.00180782 0)
(0.996905 0.00276021 0)
(0.995682 0.00488526 0)
(0.999352 0.00213741 0)
(1.00322 -0.000947913 0)
(0.999783 -0.00277237 0)
(0.995671 -7.32847e-05 0)
(1.00067 0.00463283 0)
(1.00188 -0.00176467 0)
(1.00017 5.81492e-06 0)
(1.00028 -0.00350517 0)
(0.995875 -0.00140541 0)
(0.995978 0.00186555 0)
(0.998599 -0.00015272 0)
(0.995946 0.00320456 0)
(0.99719 0.00304571 0)
(0.999689 0.00363526 0)
(1.00007 0.00304873 0)
(0.999305 0.00154829 0)
(0.998928 0.00216605 0)
(0.998258 0.00216794 0)
(0.997152 0.00290801 0)
(0.996022 0.00489579 0)
(0.999347 0.00208927 0)
(1.00314 -0.000957864 0)
(0.999796 -0.00262656 0)
(0.995847 -5.48585e-05 0)
(1.00062 0.00439188 0)
(1.00178 -0.00161443 0)
(1.00013 -6.73403e-05 0)
(1.00025 -0.00324075 0)
(0.996075 -0.00144563 0)
(0.996035 0.00192574 0)
(0.998678 -0.000174539 0)
(0.996108 0.00309609 0)
(0.997238 0.00308686 0)
(0.999715 0.00337128 0)
(0.999976 0.00314254 0)
(0.999278 0.00171004 0)
(0.998995 0.00219806 0)
(0.998348 0.00248531 0)
(0.997383 0.00309154 0)
(0.996369 0.00486009 0)
(0.999346 0.00203989 0)
(1.00305 -0.000966392 0)
(0.999814 -0.00248576 0)
(0.99602 -2.62026e-05 0)
(1.00058 0.0041411 0)
(1.00168 -0.0014543 0)
(1.0001 -0.000147418 0)
(1.00022 -0.0029723 0)
(0.996276 -0.00147723 0)
(0.996095 0.00196766 0)
(0.998752 -0.000165832 0)
(0.99628 0.00296246 0)
(0.997281 0.0031474 0)
(0.999746 0.00312614 0)
(0.999909 0.00320629 0)
(0.999247 0.00191282 0)
(0.999075 0.0022236 0)
(0.998455 0.00275138 0)
(0.997595 0.00330785 0)
(0.996715 0.00479932 0)
(0.99935 0.00198855 0)
(1.00297 -0.000971699 0)
(0.999837 -0.00235226 0)
(0.99619 1.47305e-05 0)
(1.00054 0.00388038 0)
(1.00158 -0.00128591 0)
(1.00008 -0.000232557 0)
(1.0002 -0.00270808 0)
(0.99648 -0.00149828 0)
(0.996162 0.00198349 0)
(0.998822 -0.00012802 0)
(0.996461 0.00280661 0)
(0.99732 0.00321862 0)
(0.999781 0.00291358 0)
(0.99987 0.0032352 0)
(0.999211 0.0021473 0)
(0.999164 0.00225548 0)
(0.998582 0.00296109 0)
(0.997792 0.00354883 0)
(0.997049 0.00474345 0)
(0.999358 0.00193553 0)
(1.00287 -0.000973762 0)
(0.999865 -0.00222829 0)
(0.996358 6.85149e-05 0)
(1.0005 0.00361252 0)
(1.00148 -0.00111274 0)
(1.00005 -0.000317523 0)
(1.00018 -0.00245414 0)
(0.996685 -0.00150423 0)
(0.996236 0.00197165 0)
(0.998888 -6.51778e-05 0)
(0.996651 0.00263639 0)
(0.997356 0.00328691 0)
(0.999816 0.00274002 0)
(0.99986 0.0032293 0)
(0.999175 0.00240383 0)
(0.999255 0.00230752 0)
(0.998731 0.00310721 0)
(0.997977 0.00379631 0)
(0.997359 0.00472238 0)
(0.999371 0.00188006 0)
(1.00278 -0.000969927 0)
(0.999899 -0.00211814 0)
(0.996524 0.000137663 0)
(1.00046 0.00334109 0)
(1.00137 -0.000937819 0)
(1.00003 -0.00039355 0)
(1.00016 -0.00221986 0)
(0.99689 -0.00147967 0)
(0.99632 0.00193421 0)
(0.99895 2.614e-05 0)
(0.996851 0.00246685 0)
(0.997392 0.00334614 0)
(0.999849 0.0026078 0)
(0.999881 0.00319189 0)
(0.999142 0.00266605 0)
(0.99934 0.0023903 0)
(0.998903 0.00318919 0)
(0.998159 0.00402095 0)
(0.997634 0.00476338 0)
(0.999386 0.00182208 0)
(1.00269 -0.000960232 0)
(0.999937 -0.00202051 0)
(0.996688 0.00021919 0)
(1.00043 0.00306582 0)
(1.00127 -0.000764079 0)
(1.00001 -0.000458227 0)
(1.00015 -0.00201321 0)
(0.997094 -0.00142594 0)
(0.996413 0.00188171 0)
(0.999009 0.000131388 0)
(0.99706 0.0023042 0)
(0.99743 0.00339741 0)
(0.999876 0.00252481 0)
(0.999931 0.00313074 0)
(0.999119 0.00291686 0)
(0.999414 0.00250991 0)
(0.999095 0.00322323 0)
(0.998353 0.00419264 0)
(0.997871 0.00487751 0)
(0.999404 0.00176106 0)
(1.00259 -0.000942345 0)
(0.99998 -0.00193886 0)
(0.996849 0.000312786 0)
(1.00041 0.00279192 0)
(1.00118 -0.000601333 0)
(0.99998 -0.00050065 0)
(1.00014 -0.00184127 0)
(0.997297 -0.00135266 0)
(0.996516 0.00181831 0)
(0.999067 0.000235289 0)
(0.997278 0.00215397 0)
(0.997476 0.00344396 0)
(0.999897 0.00248334 0)
(1.00001 0.00304971 0)
(0.999112 0.00314034 0)
(0.999472 0.00266189 0)
(0.999297 0.00323354 0)
(0.998571 0.00429097 0)
(0.998077 0.00503408 0)
(0.999423 0.00169629 0)
(1.0025 -0.000913609 0)
(1.00003 -0.00187675 0)
(0.997008 0.000417139 0)
(1.00038 0.00252452 0)
(1.00109 -0.000453283 0)
(0.999952 -0.000513467 0)
(1.00014 -0.00170191 0)
(0.997501 -0.00126247 0)
(0.996626 0.0017504 0)
(0.999124 0.000336197 0)
(0.997506 0.00201856 0)
(0.99753 0.00348432 0)
(0.999909 0.00247972 0)
(1.00011 0.00295623 0)
(0.999126 0.0033307 0)
(0.999515 0.00283863 0)
(0.9995 0.00324327 0)
(0.998817 0.00431818 0)
(0.998273 0.00517514 0)
(0.999443 0.00162855 0)
(1.0024 -0.000875745 0)
(1.00008 -0.00183004 0)
(0.997164 0.000526519 0)
(1.00036 0.00226883 0)
(1.001 -0.000327038 0)
(0.999921 -0.000494361 0)
(1.00014 -0.00158626 0)
(0.997704 -0.00116498 0)
(0.996742 0.0016912 0)
(0.99918 0.000433501 0)
(0.997745 0.00189842 0)
(0.997596 0.00351611 0)
(0.999911 0.00251206 0)
(1.00023 0.0028539 0)
(0.999168 0.00348373 0)
(0.999543 0.00303389 0)
(0.999695 0.00326912 0)
(0.99909 0.00430129 0)
(0.998478 0.0052601 0)
(0.999465 0.00155606 0)
(1.0023 -0.000825225 0)
(1.00014 -0.00179819 0)
(0.997317 0.000633925 0)
(1.00034 0.00203646 0)
(1.00093 -0.000229703 0)
(0.99989 -0.000442563 0)
(1.00015 -0.00149323 0)
(0.99791 -0.00106412 0)
(0.996866 0.00164943 0)
(0.999236 0.000532396 0)
(0.997993 0.00179128 0)
(0.997678 0.00354229 0)
(0.999902 0.00257717 0)
(1.00037 0.00273925 0)
(0.999242 0.00358632 0)
(0.999563 0.00323798 0)
(0.999874 0.00331022 0)
(0.99938 0.00426333 0)
(0.998709 0.00527667 0)
(0.999487 0.00147977 0)
(1.00221 -0.000763103 0)
(1.0002 -0.00177943 0)
(0.997469 0.000734756 0)
(1.00032 0.00183064 0)
(1.00087 -0.000159751 0)
(0.999858 -0.000365591 0)
(1.00017 -0.00140795 0)
(0.99812 -0.00097094 0)
(0.996996 0.00162351 0)
(0.999289 0.000636741 0)
(0.99825 0.00169165 0)
(0.997779 0.00355853 0)
(0.999879 0.00267369 0)
(1.00051 0.00262525 0)
(0.999352 0.00363343 0)
(0.99958 0.00344469 0)
(1.00003 0.00336427 0)
(0.999677 0.00421537 0)
(0.998971 0.00524041 0)
(0.99951 0.00139974 0)
(1.00211 -0.000689685 0)
(1.00027 -0.00177139 0)
(0.99762 0.00082134 0)
(1.0003 0.00165685 0)
(1.00081 -0.000116887 0)
(0.999827 -0.000268718 0)
(1.00018 -0.00131942 0)
(0.998333 -0.000892303 0)
(0.997135 0.00161308 0)
(0.999339 0.000749575 0)
(0.998514 0.00159962 0)
(0.997901 0.00355164 0)
(0.999844 0.00279358 0)
(1.00065 0.00252835 0)
(0.999501 0.00362409 0)
(0.999602 0.0036436 0)
(1.00017 0.00343746 0)
(0.999974 0.00415915 0)
(0.999261 0.00517268 0)
(0.999534 0.00131532 0)
(1.002 -0.000604117 0)
(1.00034 -0.00177077 0)
(0.997772 0.000884155 0)
(1.00027 0.00151842 0)
(1.00076 -9.51597e-05 0)
(0.999797 -0.000158792 0)
(1.00019 -0.00122336 0)
(0.998552 -0.000824294 0)
(0.997285 0.00161852 0)
(0.999384 0.000876211 0)
(0.998781 0.00151592 0)
(0.998048 0.00351339 0)
(0.999799 0.00292739 0)
(1.00079 0.00245966 0)
(0.999687 0.00356126 0)
(0.999637 0.00381935 0)
(1.00028 0.00353842 0)
(1.00026 0.00409641 0)
(0.999574 0.00508126 0)
(0.999559 0.00122727 0)
(1.0019 -0.000507785 0)
(1.00041 -0.0017757 0)
(0.997924 0.000921715 0)
(1.00025 0.00141236 0)
(1.00073 -8.9516e-05 0)
(0.99977 -4.46908e-05 0)
(1.0002 -0.00110729 0)
(0.998775 -0.000770159 0)
(0.997447 0.00163229 0)
(0.999423 0.00101643 0)
(0.999047 0.00143721 0)
(0.998222 0.00343857 0)
(0.999751 0.00306704 0)
(1.0009 0.00242921 0)
(0.999907 0.00345468 0)
(0.999697 0.00395509 0)
(1.00036 0.00366906 0)
(1.00053 0.00403566 0)
(0.999905 0.00496379 0)
(0.999585 0.00113629 0)
(1.00179 -0.000404154 0)
(1.00048 -0.00177899 0)
(0.99808 0.000931344 0)
(1.00022 0.00133534 0)
(1.0007 -9.62646e-05 0)
(0.999749 7.18994e-05 0)
(1.00021 -0.000968941 0)
(0.999001 -0.000719411 0)
(0.997624 0.001646 0)
(0.999454 0.00117433 0)
(0.999306 0.0013708 0)
(0.998426 0.00332091 0)
(0.999707 0.00319836 0)
(1.00099 0.00244476 0)
(1.00015 0.00332292 0)
(0.999794 0.00403516 0)
(1.00042 0.00382074 0)
(1.00077 0.00399428 0)
(1.00025 0.00482371 0)
(0.999611 0.00104244 0)
(1.00168 -0.00029494 0)
(1.00055 -0.00177739 0)
(0.998238 0.000909634 0)
(1.00019 0.00128533 0)
(1.00068 -0.000113284 0)
(0.999735 0.000190789 0)
(1.00021 -0.000799209 0)
(0.999227 -0.000665081 0)
(0.997817 0.00164771 0)
(0.999479 0.00134603 0)
(0.999549 0.00133144 0)
(0.998657 0.00316724 0)
(0.999677 0.00330624 0)
(1.00106 0.00250706 0)
(1.00041 0.00319019 0)
(0.999936 0.00405126 0)
(1.00046 0.00397332 0)
(1.00097 0.00398886 0)
(1.00059 0.00467409 0)
(0.999638 0.000947689 0)
(1.00156 -0.000183996 0)
(1.00062 -0.00176961 0)
(0.9984 0.000858737 0)
(1.00015 0.00125736 0)
(1.00066 -0.000135689 0)
(0.999732 0.000302877 0)
(1.0002 -0.00059761 0)
(0.999448 -0.00060858 0)
(0.998028 0.00162472 0)
(0.9995 0.00151521 0)
(0.99977 0.00132614 0)
(0.998913 0.00299555 0)
(0.999672 0.00337898 0)
(1.00109 0.00260286 0)
(1.00067 0.00307577 0)
(1.00012 0.00400869 0)
(1.00052 0.00410376 0)
(1.00113 0.00402544 0)
(1.00091 0.00453794 0)
(0.999665 0.00085208 0)
(1.00144 -7.4605e-05 0)
(1.00068 -0.00174647 0)
(0.998566 0.00077892 0)
(1.00012 0.00124322 0)
(1.00065 -0.000154001 0)
(0.999742 0.000395203 0)
(1.00019 -0.000372749 0)
(0.999659 -0.00053631 0)
(0.998258 0.00157535 0)
(0.999523 0.00167435 0)
(0.999966 0.0013612 0)
(0.999184 0.00282242 0)
(0.999697 0.00341139 0)
(1.00111 0.00271337 0)
(1.00092 0.00298831 0)
(1.00035 0.0039223 0)
(1.00059 0.00419349 0)
(1.00125 0.00409104 0)
(1.0012 0.00443452 0)
(0.999692 0.00075776 0)
(1.00132 2.84141e-05 0)
(1.00073 -0.00170352 0)
(0.998736 0.000670929 0)
(1.00008 0.00123879 0)
(1.00065 -0.000166118 0)
(0.999766 0.000462876 0)
(1.00018 -0.000131414 0)
(0.999854 -0.00043719 0)
(0.998503 0.00150483 0)
(0.999555 0.00181039 0)
(1.00013 0.00143148 0)
(0.999464 0.00265775 0)
(0.999755 0.00340711 0)
(1.00111 0.00283138 0)
(1.00115 0.00293265 0)
(1.00061 0.00380867 0)
(1.00069 0.00423501 0)
(1.00135 0.00416199 0)
(1.00144 0.0043705 0)
(0.999718 0.000666009 0)
(1.0012 0.000124218 0)
(1.00076 -0.00164 0)
(0.998909 0.000544111 0)
(1.00005 0.0012377 0)
(1.00064 -0.000162027 0)
(0.999807 0.000498965 0)
(1.00016 0.00011233 0)
(1.00003 -0.000306256 0)
(0.998759 0.00142464 0)
(0.999601 0.00191391 0)
(1.00028 0.00152717 0)
(0.999743 0.00251381 0)
(0.999849 0.00336909 0)
(1.0011 0.00294755 0)
(1.00135 0.00290809 0)
(1.00089 0.00367672 0)
(1.00083 0.00422823 0)
(1.00144 0.00421968 0)
(1.00163 0.00434464 0)
(0.999745 0.000577802 0)
(1.00108 0.000210481 0)
(1.00079 -0.00155269 0)
(0.999083 0.000402854 0)
(1.00002 0.00123368 0)
(1.00063 -0.000133629 0)
(0.999863 0.000505828 0)
(1.00015 0.000349361 0)
(1.00018 -0.000139503 0)
(0.99902 0.00135172 0)
(0.999665 0.00197975 0)
(1.0004 0.00163302 0)
(1.00001 0.00239915 0)
(0.999978 0.00330212 0)
(1.0011 0.0030496 0)
(1.00151 0.00291709 0)
(1.00118 0.00353901 0)
(1.00101 0.00417435 0)
(1.00152 0.0042495 0)
(1.00178 0.00433834 0)
(0.99977 0.00049583 0)
(1.00096 0.0002811 0)
(1.0008 -0.00143845 0)
(0.999257 0.00025081 0)
(0.999997 0.00122775 0)
(1.00062 -7.75731e-05 0)
(0.999933 0.000493335 0)
(1.00015 0.000555661 0)
(1.0003 5.8687e-05 0)
(0.999276 0.00129848 0)
(0.999746 0.00201094 0)
(1.0005 0.00173509 0)
(1.00027 0.00231051 0)
(1.00014 0.00321407 0)
(1.0011 0.00312497 0)
(1.00164 0.00295476 0)
(1.00146 0.00341502 0)
(1.00123 0.00408144 0)
(1.00163 0.00424632 0)
(1.00191 0.00433336 0)
(0.999795 0.000421106 0)
(1.00084 0.000334082 0)
(1.00079 -0.00129691 0)
(0.999428 9.65248e-05 0)
(0.999986 0.00120913 0)
(1.0006 1.60001e-05 0)
(1.00001 0.000472993 0)
(1.00016 0.000710119 0)
(1.0004 0.000269254 0)
(0.999521 0.00126984 0)
(0.999843 0.00202071 0)
(1.00059 0.00182935 0)
(1.00051 0.00224339 0)
(1.00032 0.00311604 0)
(1.00112 0.00317281 0)
(1.00174 0.0030072 0)
(1.00172 0.00331507 0)
(1.00147 0.00396014 0)
(1.00176 0.00420505 0)
(1.00202 0.00431167 0)
(0.999818 0.000355682 0)
(1.00073 0.000365005 0)
(1.00077 -0.00113405 0)
(0.999593 -4.45526e-05 0)
(0.999989 0.00116839 0)
(1.00057 0.000136909 0)
(1.00009 0.000458877 0)
(1.00019 0.000811923 0)
(1.00049 0.000470906 0)
(0.999751 0.0012706 0)
(0.999952 0.00201789 0)
(1.00067 0.00191337 0)
(1.00073 0.00219423 0)
(1.00052 0.00300985 0)
(1.00117 0.00319578 0)
(1.00181 0.00306894 0)
(1.00195 0.00324407 0)
(1.00172 0.00382772 0)
(1.00191 0.00413084 0)
(1.00214 0.00426156 0)
(0.99984 0.000299655 0)
(1.00063 0.000373788 0)
(1.00073 -0.000957507 0)
(0.999749 -0.000165211 0)
(1.00001 0.00110312 0)
(1.00054 0.00027488 0)
(1.00017 0.00046216 0)
(1.00023 0.000869189 0)
(1.00057 0.000652552 0)
(0.999963 0.00129878 0)
(1.00007 0.00201196 0)
(1.00074 0.00198713 0)
(1.00093 0.00216221 0)
(1.00073 0.00289647 0)
(1.00124 0.00318299 0)
(1.00187 0.00312993 0)
(1.00214 0.00320187 0)
(1.00197 0.00369648 0)
(1.00208 0.00403706 0)
(1.00226 0.00418363 0)
(0.99986 0.000253918 0)
(1.00054 0.000361653 0)
(1.00068 -0.000775307 0)
(0.999892 -0.000256329 0)
(1.00005 0.00100671 0)
(1.00051 0.000419219 0)
(1.00023 0.000504979 0)
(1.00029 0.000900083 0)
(1.00065 0.000798081 0)
(1.00016 0.00134007 0)
(1.00019 0.00201028 0)
(1.00081 0.00205383 0)
(1.0011 0.00214763 0)
(1.00095 0.00278936 0)
(1.00134 0.00313763 0)
(1.00193 0.00317477 0)
(1.0023 0.00318865 0)
(1.00221 0.00357432 0)
(1.00226 0.00393075 0)
(1.0024 0.00408517 0)
(0.999878 0.000218331 0)
(1.00046 0.00033263 0)
(1.00063 -0.00059855 0)
(1.00002 -0.000306046 0)
(1.0001 0.000889425 0)
(1.00049 0.000545379 0)
(1.00029 0.000586474 0)
(1.00036 0.000926364 0)
(1.00072 0.000902211 0)
(1.00034 0.0013819 0)
(1.00032 0.00201503 0)
(1.00087 0.00211613 0)
(1.00124 0.00214597 0)
(1.00117 0.00268676 0)
(1.00147 0.00306827 0)
(1.00199 0.00318833 0)
(1.00242 0.00319441 0)
(1.00243 0.00347524 0)
(1.00245 0.0038189 0)
(1.00254 0.00398716 0)
(0.999894 0.000191462 0)
(1.00039 0.000292878 0)
(1.00057 -0.000434595 0)
(1.00013 -0.000313153 0)
(1.00017 0.000760903 0)
(1.00049 0.000642852 0)
(1.00033 0.00069271 0)
(1.00042 0.00095923 0)
(1.0008 0.000974863 0)
(1.00052 0.00140958 0)
(1.00045 0.00201956 0)
(1.00092 0.00218004 0)
(1.00136 0.00216412 0)
(1.00137 0.0025947 0)
(1.00162 0.00298045 0)
(1.00207 0.00316954 0)
(1.00253 0.00319486 0)
(1.00263 0.00339969 0)
(1.00264 0.00369864 0)
(1.00268 0.0038891 0)
(0.999908 0.000172168 0)
(1.00033 0.000247463 0)
(1.00051 -0.000289673 0)
(1.00021 -0.000278673 0)
(1.00025 0.000636446 0)
(1.00051 0.000693783 0)
(1.00037 0.000807781 0)
(1.00047 0.00101569 0)
(1.00087 0.00103634 0)
(1.00069 0.00141861 0)
(1.00059 0.00200964 0)
(1.00098 0.00223614 0)
(1.00146 0.00219833 0)
(1.00155 0.00252409 0)
(1.00178 0.00287811 0)
(1.00217 0.00312407 0)
(1.00262 0.00317768 0)
(1.00279 0.00333993 0)
(1.00282 0.00358142 0)
(1.00281 0.00378749 0)
(0.99992 0.000159709 0)
(1.00029 0.000200871 0)
(1.00046 -0.000167384 0)
(1.00028 -0.000213819 0)
(1.00033 0.000537964 0)
(1.00055 0.000701322 0)
(1.00041 0.000910824 0)
(1.00052 0.00109757 0)
(1.00094 0.00109617 0)
(1.00086 0.00141274 0)
(1.00074 0.00198262 0)
(1.00105 0.00227714 0)
(1.00153 0.00224705 0)
(1.00171 0.00248166 0)
(1.00194 0.0027745 0)
(1.00228 0.00304957 0)
(1.00272 0.00313812 0)
(1.00293 0.00327817 0)
(1.00299 0.00347142 0)
(1.00294 0.00368059 0)
(0.99993 0.000151617 0)
(1.00025 0.000159595 0)
(1.00042 -6.84774e-05 0)
(1.00034 -0.000129048 0)
(1.00041 0.000473404 0)
(1.00061 0.00068312 0)
(1.00047 0.00098787 0)
(1.00056 0.00118851 0)
(1.00099 0.00116941 0)
(1.00101 0.00140263 0)
(1.00091 0.00193202 0)
(1.00113 0.00229377 0)
(1.00159 0.00229804 0)
(1.00183 0.00246592 0)
(1.0021 0.00268963 0)
(1.00241 0.00295542 0)
(1.00281 0.00307747 0)
(1.00306 0.00320961 0)
(1.00315 0.00336155 0)
(1.00306 0.00356922 0)
(0.999939 0.000145319 0)
(1.00022 0.000129239 0)
(1.00038 8.62472e-06 0)
(1.00038 -3.23796e-05 0)
(1.00047 0.000450818 0)
(1.00068 0.000651131 0)
(1.00054 0.00102482 0)
(1.0006 0.00127147 0)
(1.00102 0.00126053 0)
(1.00114 0.00140769 0)
(1.00108 0.00186048 0)
(1.00123 0.00227791 0)
(1.00164 0.00233435 0)
(1.00193 0.00246676 0)
(1.00223 0.00262799 0)
(1.00254 0.00286043 0)
(1.00292 0.0029941 0)
(1.00317 0.00313635 0)
(1.0033 0.00324905 0)
(1.00318 0.00345208 0)
(0.999947 0.000141073 0)
(1.0002 0.000111745 0)
(1.00036 6.73739e-05 0)
(1.00042 6.00204e-05 0)
(1.00053 0.000466334 0)
(1.00076 0.000626397 0)
(1.00063 0.00102499 0)
(1.00065 0.00133495 0)
(1.00105 0.00135427 0)
(1.00125 0.00143389 0)
(1.00125 0.00179301 0)
(1.00135 0.00222617 0)
(1.00171 0.00235148 0)
(1.00201 0.00247453 0)
(1.00234 0.00258592 0)
(1.00266 0.00278068 0)
(1.00303 0.00289512 0)
(1.00328 0.00305019 0)
(1.00344 0.00313639 0)
(1.00331 0.0033193 0)
(0.999953 0.000136946 0)
(1.00019 0.000106285 0)
(1.00034 0.000115081 0)
(1.00045 0.000140925 0)
(1.00058 0.000502182 0)
(1.00083 0.000619682 0)
(1.00073 0.00100355 0)
(1.00072 0.00137097 0)
(1.00107 0.00144599 0)
(1.00134 0.0014773 0)
(1.0014 0.00174567 0)
(1.00149 0.00214766 0)
(1.00179 0.00233456 0)
(1.00209 0.00247619 0)
(1.00243 0.00255388 0)
(1.00276 0.00271681 0)
(1.00313 0.0028019 0)
(1.00338 0.00294855 0)
(1.00355 0.00302871 0)
(1.00344 0.00317799 0)
(0.999958 0.000133502 0)
(1.00018 0.000110084 0)
(1.00034 0.000155971 0)
(1.00049 0.000208339 0)
(1.00061 0.000547608 0)
(1.0009 0.000635585 0)
(1.00084 0.000978414 0)
(1.00081 0.00137245 0)
(1.0011 0.00152273 0)
(1.0014 0.00153823 0)
(1.00153 0.00171718 0)
(1.00163 0.00207306 0)
(1.00189 0.00228066 0)
(1.00216 0.00246008 0)
(1.00251 0.00252552 0)
(1.00284 0.00266029 0)
(1.00322 0.00272414 0)
(1.00348 0.00284175 0)
(1.00366 0.00291704 0)
(1.00356 0.00304002 0)
(0.999963 0.000130419 0)
(1.00017 0.000120339 0)
(1.00033 0.000192863 0)
(1.00052 0.00026057 0)
(1.00065 0.000598463 0)
(1.00095 0.000671837 0)
(1.00094 0.000961032 0)
(1.00092 0.0013504 0)
(1.00114 0.00156901 0)
(1.00144 0.00160877 0)
(1.00164 0.00170998 0)
(1.00176 0.0020087 0)
(1.002 0.00221049 0)
(1.00224 0.00241322 0)
(1.00258 0.00249237 0)
(1.00291 0.00260496 0)
(1.00329 0.0026533 0)
(1.00356 0.00274572 0)
(1.00376 0.00279775 0)
(1.00367 0.00290791 0)
(0.999967 0.000127727 0)
(1.00016 0.000133848 0)
(1.00033 0.000229232 0)
(1.00056 0.000301014 0)
(1.00068 0.000644944 0)
(1.001 0.000724671 0)
(1.00103 0.000957266 0)
(1.00103 0.00131995 0)
(1.0012 0.00158699 0)
(1.00147 0.00166614 0)
(1.00172 0.00172989 0)
(1.00188 0.00195485 0)
(1.00211 0.00214353 0)
(1.00233 0.00234476 0)
(1.00265 0.00244069 0)
(1.00297 0.00254929 0)
(1.00335 0.00257982 0)
(1.00362 0.00266059 0)
(1.00383 0.00268277 0)
(1.00376 0.00277545 0)
(0.999969 0.000126147 0)
(1.00016 0.000148192 0)
(1.00032 0.00026691 0)