/*--------------------------------*- C++ -*----------------------------------*\
| =========                 |                                                 |
| \\      /  F ield         | OpenFOAM: The Open Source CFD Toolbox           |
|  \\    /   O peration     | Version:  3.0.1                                 |
|   \\  /    A nd           | Web:      www.OpenFOAM.org                      |
|    \\/     M anipulation  |                                                 |
\*---------------------------------------------------------------------------*/
FoamFile
{
    version     2.0;
    format      ascii;
    class       volScalarField;
    location    "0.1";
    object      p;
}
// * * * * * * * * * * * * * * * * * * * * * * * * * * * * * * * * * * * * * //

dimensions      [0 2 -2 0 0 0 0];

internalField   nonuniform List<scalar> 
9600
(
1.46069e-12
0.00635537
0.00584382
0.00601144
0.00680399
0.00571907
0.00688184
0.0082909
0.00751012
0.00794961
0.00941017
0.00973065
0.00965098
0.0110042
0.0120238
0.0137611
0.0146443
0.0168362
0.0202126
0.0233069
4.04384e-06
0.0063531
0.00584609
0.00601075
0.00680332
0.00571697
0.00688485
0.00828892
0.00751226
0.00794573
0.0094102
0.00972524
0.00966042
0.0109975
0.0120231
0.0137558
0.0146535
0.0167527
0.0202445
0.0228652
9.68061e-06
0.00634898
0.00584977
0.0060068
0.0068026
0.00571802
0.0068874
0.0082831
0.00751778
0.00794066
0.0094068
0.00972278
0.00967158
0.0109847
0.012035
0.0137408
0.0146516
0.0166779
0.0202391
0.0222919
1.80608e-05
0.0063501
0.00585372
0.00599837
0.00680372
0.0057243
0.00688841
0.00827294
0.00752738
0.00793631
0.00939945
0.0097246
0.00968359
0.0109695
0.0120534
0.0137136
0.0146492
0.0166026
0.0201694
0.0218102
3.12072e-05
0.00635804
0.00585651
0.00598549
0.00680801
0.00573528
0.00688803
0.00825911
0.0075412
0.00793214
0.00939029
0.00972948
0.00969704
0.010952
0.0120725
0.0136798
0.0146481
0.0165137
0.0200749
0.0213858
5.04547e-05
0.00637088
0.00585657
0.00596934
0.00681611
0.00574947
0.00688642
0.00824313
0.0075585
0.00792768
0.00938096
0.00973568
0.00971133
0.0109331
0.0120913
0.0136427
0.0146438
0.0164181
0.0199592
0.0209869
7.6073e-05
0.00638634
0.00585308
0.00595162
0.00682781
0.00576512
0.00688374
0.00822648
0.0075782
0.00792289
0.00937197
0.00974146
0.00972619
0.0109134
0.0121091
0.0136042
0.0146351
0.0163193
0.0198141
0.020606
0.000107497
0.00640299
0.00584613
0.00593363
0.00684221
0.00578096
0.0068803
0.00821002
0.00759931
0.00791779
0.00936335
0.00974577
0.0097415
0.0108931
0.0121256
0.013566
0.01462
0.0162178
0.019637
0.0202423
0.000143736
0.00642009
0.00583649
0.005916
0.00685832
0.00579635
0.00687642
0.00819399
0.00762104
0.00791241
0.00935504
0.0097482
0.00975696
0.0108725
0.0121401
0.0135289
0.0145965
0.0161139
0.0194296
0.0198947
0.000183744
0.0064373
0.00582516
0.00589869
0.00687533
0.00581113
0.00687236
0.00817832
0.00764287
0.00790679
0.00934707
0.00974878
0.00977216
0.0108518
0.0121518
0.0134933
0.0145631
0.0160082
0.0191941
0.0195512
0.000226663
0.00645452
0.0058131
0.00588139
0.00689276
0.00582536
0.0068684
0.00816283
0.00766445
0.00790092
0.00933944
0.00974782
0.00978664
0.0108316
0.0121594
0.0134596
0.014519
0.0158999
0.0189323
0.0192109
0.000271929
0.00647173
0.00580102
0.00586375
0.00691038
0.00583912
0.00686471
0.00814737
0.00768553
0.00789477
0.00933212
0.00974572
0.00979985
0.0108124
0.0121617
0.0134277
0.0144632
0.0157877
0.0186479
0.0188701
0.000319249
0.00648888
0.00578939
0.00584551
0.00692811
0.00585247
0.0068614
0.00813186
0.00770595
0.00788838
0.00932499
0.00974295
0.00981111
0.0107946
0.0121579
0.0133974
0.0143954
0.0156692
0.0183463
0.018526
0.000368518
0.00650588
0.00577851
0.00582649
0.00694592
0.00586539
0.00685849
0.0081163
0.00772556
0.00788185
0.00931778
0.00973996
0.00981966
0.0107787
0.0121476
0.013368
0.014316
0.0155413
0.0180333
0.0181772
0.000419741
0.00652257
0.00576861
0.00580661
0.00696379
0.00587787
0.00685598
0.00810074
0.00774419
0.00787528
0.00931015
0.00973725
0.00982477
0.0107649
0.0121303
0.0133381
0.0142264
0.0154009
0.0177139
0.017824
0.000472979
0.00653877
0.00575987
0.00578579
0.00698174
0.00588985
0.00685383
0.00808527
0.00776167
0.00786885
0.00930168
0.00973534
0.00982587
0.0107531
0.0121063
0.0133061
0.0141284
0.0152455
0.017391
0.017468
0.000528321
0.00655427
0.00575247
0.00576397
0.00699975
0.00590128
0.00685196
0.00807003
0.00777776
0.0078628
0.00929183
0.00973468
0.00982253
0.0107428
0.0120761
0.0132695
0.0140243
0.0150738
0.0170658
0.0171121
0.000585868
0.00656881
0.00574659
0.0057411
0.00701783
0.00591216
0.00685024
0.00805519
0.00779219
0.00785742
0.00928005
0.00973563
0.00981457
0.0107332
0.0120407
0.0132254
0.0139158
0.0148864
0.0167377
0.0167589
0.00064573
0.00658213
0.00574243
0.00571714
0.00703595
0.00592247
0.00684854
0.00804097
0.00780466
0.00785305
0.00926581
0.00973831
0.00980212
0.0107231
0.0120019
0.0131706
0.0138036
0.0146859
0.0164052
0.0164098
0.000708024
0.00659394
0.00574017
0.00569202
0.00705409
0.00593223
0.00684668
0.00802766
0.00781476
0.00784996
0.00924877
0.00974253
0.00978551
0.0107113
0.0119615
0.0131036
0.013687
0.0144756
0.0160673
0.0160656
0.000772877
0.00660392
0.00574001
0.00566571
0.00707223
0.00594154
0.00684433
0.0080156
0.00782209
0.00784843
0.00922867
0.00974794
0.00976551
0.0106952
0.0119209
0.0130238
0.0135642
0.0142592
0.0157252
0.0157261
0.000840419
0.00661175
0.00574216
0.00563819
0.00709028
0.00595055
0.00684115
0.00800509
0.00782626
0.00784869
0.00920535
0.00975394
0.00974354
0.0106725
0.0118804
0.0129323
0.0134324
0.0140399
0.015381
0.0153903
0.000910787
0.00661706
0.00574681
0.00560943
0.00710815
0.00595943
0.00683674
0.00799659
0.00782687
0.0078507
0.00917906
0.00975942
0.00972105
0.0106411
0.0118394
0.0128313
0.013289
0.0138187
0.0150377
0.0150577
0.000984125
0.00661948
0.00575415
0.00557946
0.00712569
0.00596841
0.00683063
0.00799055
0.00782357
0.00785417
0.00915045
0.00976282
0.00969938
0.0106004
0.0117959
0.0127239
0.0131325
0.0135945
0.0146985
0.0147291
0.00106058
0.00661864
0.00576436
0.00554832
0.0071427
0.00597784
0.00682233
0.00798734
0.00781623
0.00785867
0.00912022
0.00976259
0.00967972
0.0105499
0.0117474
0.0126129
0.0129636
0.0133652
0.0143651
0.0144066
0.00114029
0.00661414
0.00577759
0.00551611
0.00715887
0.00598821
0.00681116
0.00798725
0.00780503
0.00786351
0.00908951
0.00975685
0.00966237
0.0104902
0.0116939
0.0125002
0.0127847
0.013129
0.014037
0.014092
0.00122343
0.00660559
0.00579398
0.00548297
0.00717389
0.00600008
0.00679647
0.00799045
0.00779028
0.0078675
0.00905975
0.00974391
0.00964664
0.0104234
0.0116269
0.0123857
0.0125997
0.0128858
0.0137134
0.0137849
0.00131012
0.00659261
0.0058136
0.00544912
0.00718737
0.00601397
0.00677764
0.00799701
0.00777241
0.00786905
0.0090324
0.00972319
0.0096311
0.0103521
0.0115457
0.0122681
0.0124124
0.0126369
0.0133922
0.0134836
0.00140053
0.00657485
0.0058365
0.00541486
0.00719877
0.00603055
0.00675404
0.00800671
0.00775231
0.00786654
0.00900868
0.00969456
0.00961338
0.0102788
0.0114504
0.0121449
0.0122259
0.0123844
0.0130725
0.0131863
0.00149479
0.00655196
0.00586266
0.00538057
0.00720742
0.00605063
0.00672515
0.00801889
0.00773122
0.00785806
0.00898929
0.00965861
0.00959039
0.0102053
0.0113422
0.0120124
0.0120413
0.012132
0.012754
0.0128913
0.00159302
0.00652366
0.00589195
0.00534677
0.00721261
0.00607506
0.00669073
0.00803247
0.00770978
0.00784185
0.00897388
0.00961744
0.00955886
0.0101322
0.0112245
0.0118675
0.0118572
0.0118842
0.0124381
0.0125974
0.00169534
0.00648974
0.00592418
0.00531407
0.00721347
0.00610465
0.00665073
0.0080461
0.00769415
0.00781648
0.0089612
0.00957402
0.0095162
0.0100584
0.011102
0.0117094
0.0116702
0.0116449
0.0121281
0.0123036
0.00180184
0.00645002
0.00595903
0.00528319
0.00720919
0.00614004
0.00660532
0.00805831
0.00768407
0.00778081
0.00894905
0.00953181
0.00946097
0.00998087
0.0109791
0.0115405
0.0114759
0.0114144
0.0118288
0.01201
0.00191257
0.00640449
0.00599604
0.00525493
0.00719886
0.00618165
0.00655517
0.00806709
0.00768109
0.00773467
0.00893432
0.00949398
0.00939289
0.00990561
0.0108593
0.0113653
0.0112701
0.0111891
0.0115448
0.0117195
0.00202755
0.00635317
0.00603473
0.00523025
0.00718146
0.00622968
0.0065014
0.00807004
0.00768677
0.00767903
0.00891295
0.00946284
0.00931332
0.00980864
0.0107425
0.0111902
0.0110521
0.0109629
0.0112782
0.0114378
0.00214677
0.00629626
0.00607452
0.00521015
0.00715612
0.00628413
0.00644542
0.0080647
0.00770232
0.00761563
0.00888039
0.00943949
0.00922666
0.00969381
0.0106261
0.0110223
0.0108254
0.0107278
0.0110267
0.0111721
0.00227015
0.00623413
0.00611425
0.0051956
0.00712221
0.00634453
0.00638921
0.00804851
0.00772778
0.00754753
0.00883259
0.00942423
0.0091388
0.00955885
0.0105051
0.010867
0.0105969
0.0104776
0.0107832
0.0109277
0.00239753
0.00616726
0.00615286
0.0051876
0.00707938
0.00640981
0.00633497
0.00801915
0.00776224
0.00747878
0.0087666
0.00941228
0.00905591
0.00940444
0.0103721
0.0107259
0.0103755
0.0102109
0.0105364
0.0107052
0.00252872
0.00609632
0.00618936
0.00518708
0.00702754
0.00647846
0.00628515
0.00797458
0.00780891
0.00741349
0.00868004
0.00939997
0.00898393
0.00923379
0.0102192
0.0105961
0.0101716
0.00993293
0.0102738
0.0104984
0.00266342
0.00602217
0.00622253
0.00519483
0.00696672
0.00654874
0.00624256
0.00791336
0.00785684
0.00735503
0.00857166
0.0093817
0.0089276
0.00905197
0.0100401
0.0104714
0.00999378
0.00965426
0.00998626
0.0102946
0.00280124
0.00594582
0.00625116
0.00521137
0.00689739
0.00661838
0.00620982
0.00783552
0.00790479
0.00731022
0.00844268
0.00935017
0.00888882
0.00886786
0.00983243
0.0103428
0.0098454
0.0093882
0.00967296
0.0100756
0.00294172
0.00586843
0.00627405
0.00523696
0.00682075
0.00668451
0.00618886
0.00774201
0.00794817
0.00728198
0.00829655
0.00929841
0.00886587
0.00869148
0.00959759
0.0101993
0.00972307
0.00914877
0.00934338
0.00982308
0.00308429
0.00579128
0.00629012
0.00527149
0.0067384
0.00674426
0.00618097
0.00763492
0.00798186
0.00727168
0.0081396
0.00922067
0.00885416
0.0085327
0.00934137
0.0100307
0.00961868
0.00894669
0.00901431
0.00952723
0.00322829
0.00571577
0.00629848
0.00531441
0.00665209
0.00679484
0.00618695
0.00751749
0.00800061
0.00727866
0.00797966
0.00911312
0.00884642
0.00839909
0.00907234
0.00982985
0.00952088
0.0087852
0.00870413
0.00919279
0.00337299
0.00564326
0.00629853
0.00536468
0.006564
0.00683361
0.00620669
0.00739392
0.00800035
0.00730134
0.0078242
0.00897491
0.0088334
0.00829384
0.0088017
0.00959489
0.00941626
0.00865944
0.00842932
0.00883849
0.00351757
0.0055751
0.00628994
0.00542081
0.00647662
0.00685856
0.00623894
0.00726893
0.00797847
0.00735594
0.00768051
0.00880801
0.00880518
0.00821579
0.00854227
0.00932922
0.0092923
0.00856004
0.00819919
0.00848863
0.00366118
0.00551256
0.00627269
0.005481
0.00638304
0.00686838
0.00628122
0.00714733
0.00793263
0.00739332
0.00755351
0.00861717
0.00875286
0.00816016
0.00830569
0.00904108
0.00913981
0.00847506
0.00801354
0.00816554
0.00380292
0.00545674
0.00624708
0.0055435
0.00630554
0.00686266
0.00633023
0.00703351
0.00786265
0.0074291
0.00744657
0.00841032
0.00867068
0.00811879
0.00809992
0.00874176
0.00895407
0.0083913
0.0078652
0.00788376
0.00394193
0.00540845
0.00621381
0.00560622
0.00623577
0.00684165
0.00638209
0.00693088
0.00777042
0.0074564
0.00736089
0.0081972
0.00855674
0.00808094
0.00792791
0.00844465
0.00873541
0.00829658
0.00774482
0.00764672
0.00407733
0.00536831
0.00617388
0.00566696
0.00617509
0.00680648
0.00643241
0.00684163
0.00765977
0.00746942
0.00730325
0.00798723
0.00841256
0.00803542
0.00778722
0.00816297
0.00848952
0.00818127
0.00764189
0.00744945
0.00420824
0.00533663
0.0061287
0.00572367
0.00612431
0.00675901
0.00647705
0.00676658
0.00753588
0.0074631
0.00725254
0.007788
0.00824275
0.007973
0.00767161
0.00790684
0.00822672
0.00803944
0.00754569
0.0072842
0.00433389
0.00531346
0.00607981
0.00577444
0.00608353
0.00670179
0.00651243
0.00670521
0.00740449
0.00743456
0.00721224
0.00760569
0.00805438
0.00788819
0.00757228
0.00768106
0.00795953
0.00787013
0.00744613
0.00714284
0.00445362
0.00529858
0.00602888
0.00581772
0.00605215
0.00663767
0.00653581
0.0066558
0.0072711
0.00738338
0.00717569
0.00744289
0.00785593
0.00777949
0.00747943
0.00748494
0.00770003
0.00767753
0.00733486
0.00701714
0.00456686
0.00529144
0.00597756
0.00585252
0.00602895
0.00656951
0.0065456
0.0066156
0.00714041
0.0073114
0.00713633
0.00729902
0.00765568
0.00764851
0.00738437
0.00731438
0.0074571
0.00746972
0.00720688
0.0068991
0.0046732
0.00529131
0.00592736
0.00587831
0.00601231
0.00649995
0.00654122
0.00658126
0.00701598
0.00722189
0.00708888
0.00717149
0.00746063
0.00749933
0.00728104
0.00716322
0.0072352
0.00725622
0.00706145
0.00678146
0.00477237
0.00529726
0.00587961
0.00589502
0.0060003
0.00643123
0.00652315
0.00654937
0.00689978
0.00711898
0.00702998
0.0070565
0.00727559
0.0073376
0.00716637
0.00702448
0.00703493
0.0070456
0.00690163
0.00665873
0.00486422
0.00530832
0.00583514
0.00590295
0.0059909
0.00636493
0.00649284
0.00651682
0.00679235
0.00700715
0.00695836
0.00694965
0.00710286
0.00716929
0.00703989
0.00689187
0.00685415
0.00684401
0.00673284
0.00652816
0.00494871
0.00532345
0.00579496
0.00590276
0.00598228
0.00630203
0.00645205
0.00648101
0.00669304
0.00689062
0.00687443
0.00684661
0.00694255
0.00699982
0.00690322
0.00676071
0.00668908
0.00665472
0.00656102
0.00638984
0.00502591
0.00534153
0.00575933
0.0058955
0.00597285
0.00624288
0.00640276
0.00644012
0.0066005
0.00677285
0.00677982
0.00674398
0.00679348
0.00683333
0.00675926
0.00662819
0.00653552
0.00647852
0.00639121
0.00624598
0.00509597
0.00536146
0.00572833
0.00588238
0.00596127
0.0061874
0.0063471
0.00639293
0.00651308
0.00665636
0.00667685
0.00663955
0.00665372
0.00667247
0.00661134
0.00649325
0.00638971
0.00631444
0.00622687
0.00609973
0.0051591
0.00538227
0.00570177
0.00586462
0.0059466
0.0061351
0.006287
0.00633952
0.00642914
0.00654272
0.00656813
0.00653233
0.00652103
0.00651855
0.0064626
0.00635621
0.00624887
0.00616064
0.00606979
0.00595416
0.00521558
0.00540308
0.00567923
0.00584337
0.00592833
0.00608526
0.00622421
0.00628036
0.00634707
0.00643258
0.00645618
0.00642226
0.00639341
0.00637182
0.00631559
0.00621819
0.00611132
0.00601512
0.00592045
0.00581166
0.00526571
0.00542316
0.00566018
0.00581965
0.00590631
0.00603712
0.00616007
0.00621626
0.00626558
0.006326
0.00634311
0.00630998
0.00626935
0.00623189
0.00617213
0.00608068
0.00597634
0.00587617
0.00577853
0.00567373
0.00530979
0.00544189
0.00564395
0.0057943
0.0058807
0.0059899
0.00609547
0.0061483
0.00618398
0.00622277
0.0062306
0.00619654
0.00614797
0.00609806
0.0060333
0.00594516
0.00584391
0.0057426
0.00564335
0.00554111
0.00534818
0.00545879
0.00562989
0.00576799
0.00585184
0.00594299
0.00603101
0.00607768
0.00610202
0.00612256
0.00611985
0.00608311
0.00602889
0.00596961
0.00589966
0.00581285
0.00571445
0.00561373
0.00551422
0.00541399
0.00538118
0.00547353
0.00561732
0.00574119
0.00582025
0.005896
0.00596708
0.00600547
0.00601979
0.00602507
0.00601161
0.00597083
0.0059122
0.00584601
0.00577137
0.00568465
0.00558854
0.0054893
0.00539059
0.00529232
0.00540912
0.00548585
0.00560563
0.00571424
0.0057865
0.00584872
0.00590391
0.00593265
0.00593764
0.00593012
0.00590641
0.00586068
0.00579822
0.00572696
0.00564844
0.00556119
0.00546677
0.00536935
0.00527213
0.00517594
0.00543235
0.00549561
0.00559433
0.00568735
0.0057512
0.00580114
0.00584167
0.00586006
0.00585609
0.00583769
0.00580457
0.00575347
0.00568744
0.00561237
0.00553082
0.00544285
0.00534967
0.0052541
0.00515872
0.00506474
0.00545119
0.00550277
0.00558303
0.00566067
0.00571492
0.00575345
0.00578057
0.00578842
0.00577572
0.00574791
0.00570638
0.00564987
0.00558042
0.00550238
0.00541854
0.0053299
0.00523764
0.00514381
0.00505042
0.00495869
0.00546597
0.0055074
0.00557144
0.00563428
0.0056782
0.00570593
0.00572081
0.00571832
0.00569717
0.00566107
0.0056121
0.00555041
0.00547769
0.00539723
0.00531169
0.00522255
0.00513105
0.0050388
0.00494737
0.00485788
0.00547705
0.00550962
0.0055594
0.0056083
0.00564161
0.00565898
0.00566265
0.00565031
0.00562108
0.00557756
0.00552205
0.00545557
0.00537977
0.00529727
0.00521047
0.00512101
0.0050302
0.00493938
0.0048498
0.00476244
0.00548482
0.00550962
0.00554688
0.00558286
0.00560558
0.00561302
0.00560647
0.00558492
0.00554805
0.00549786
0.00543659
0.00536579
0.00528716
0.0052029
0.00511514
0.00502553
0.00493538
0.00484585
0.004758
0.00467263
0.00548968
0.00550769
0.00553397
0.00555813
0.00557058
0.00556859
0.00555271
0.00552269
0.00547873
0.00542251
0.00535618
0.00528153
0.00520034
0.00511455
0.00502606
0.00493643
0.00484692
0.00475857
0.00467228
0.00458873
0.00549207
0.00550416
0.00552084
0.00553434
0.00553707
0.00552624
0.00550187
0.00546417
0.00541372
0.00535208
0.0052813
0.00520329
0.00511983
0.00503271
0.00494364
0.00485407
0.00476518
0.00467791
0.00459303
0.00451112
0.00549246
0.00549943
0.00550778
0.00551179
0.00550558
0.00548656
0.00545454
0.00540998
0.00535369
0.00528723
0.00521256
0.00513161
0.00504617
0.00495791
0.00486837
0.0047789
0.00469058
0.00460427
0.00452065
0.0044402
0.00549134
0.00549397
0.00549516
0.00549086
0.00547663
0.00545019
0.00541136
0.00536073
0.0052993
0.00522862
0.00515059
0.00506713
0.00497999
0.00489075
0.00480083
0.00471146
0.00462365
0.00453817
0.00445564
0.00437645
0.00548927
0.00548828
0.00548343
0.00547203
0.00545079
0.00541787
0.00537314
0.00531726
0.00525136
0.005177
0.00509609
0.00501049
0.00492191
0.00483185
0.00474162
0.00465236
0.00456496
0.00448016
0.0043985
0.00432036
0.00548683
0.00548293
0.00547311
0.00545584
0.00542873
0.00539035
0.00534075
0.00528059
0.00521101
0.00513363
0.00505032
0.00496295
0.00487317
0.00478242
0.00469193
0.00460274
0.0045157
0.00443144
0.00435043
0.00427299
0.00548452
0.00547838
0.00546444
0.00544233
0.00541075
0.00536809
0.00531476
0.00525134
0.00517897
0.0050993
0.00501423
0.00492557
0.00483493
0.00474368
0.00465301
0.00456389
0.00447713
0.00439335
0.00431297
0.00423627
0.0054832
0.00547607
0.00545924
0.00543292
0.00539718
0.00535097
0.00529452
0.00522822
0.00515328
0.00507146
0.00498466
0.00489468
0.00480309
0.00471119
0.00462012
0.0045308
0.004444
0.00436028
0.00428005
0.00420359
0.0300758
0.0225371
0.0119168
0.00433519
0.00201479
0.00228421
0.00250025
0.00246696
0.00259898
0.00262411
0.00225372
0.00191113
0.00181139
0.0016039
0.00128206
0.00107656
0.000916896
0.000782599
0.000758717
0.000725107
0.000626527
0.000609812
0.000659768
0.00061743
0.000502552
0.000435474
0.000406162
0.000339879
0.000235761
0.000130894
2.95035e-05
-8.28652e-05
-0.000208744
-0.000342698
-0.000482959
-0.000630714
-0.000786073
-0.000948297
-0.00111677
-0.00129113
-0.00147107
-0.00165627
-0.00184649
-0.00204159
-0.00224145
-0.002446
-0.00265519
-0.00286899
-0.0030874
-0.0033104
-0.00353802
-0.00377027
-0.00400719
-0.00424881
-0.00449517
-0.00474633
-0.00500233
-0.00526324
-0.00552912
-0.00580003
-0.00607604
-0.00635724
-0.00664369
-0.00693548
-0.00723269
-0.00753541
-0.00784374
-0.00815775
-0.00847756
-0.00880325
-0.00913492
-0.00947269
-0.00981666
-0.0101669
-0.0105236
-0.0108868
-0.0112567
-0.0116333
-0.0120168
-0.0124074
-0.0128049
-0.01321
-0.013622
-0.0140423
-0.014469
-0.0149054
-0.0153469
-0.0158002
-0.0162569
-0.016727
-0.0172012
-0.0176853
-0.0181808
-0.0186753
-0.019192
-0.0197003
-0.0202238
-0.0207541
-0.0212483
-0.0217559
0.0288319
0.0223601
0.0120029
0.00447155
0.00209939
0.0023256
0.00252482
0.00248302
0.00261116
0.00263452
0.00226175
0.00191715
0.00181674
0.00160843
0.00128533
0.00107913
0.000918948
0.000784001
0.000759841
0.000726066
0.000627051
0.000610033
0.000660028
0.000617712
0.000502667
0.000435492
0.00040619
0.000339915
0.000235767
0.000130882
2.94911e-05
-8.28741e-05
-0.000208755
-0.000342708
-0.000482967
-0.000630719
-0.000786077
-0.000948301
-0.00111677
-0.00129114
-0.00147107
-0.00165627
-0.00184649
-0.00204159
-0.00224145
-0.002446
-0.00265519
-0.002869
-0.0030874
-0.0033104
-0.00353802
-0.00377027
-0.00400719
-0.00424881
-0.00449517
-0.00474633
-0.00500233
-0.00526324
-0.00552912
-0.00580003
-0.00607604
-0.00635724
-0.00664369
-0.00693548
-0.00723269
-0.00753541
-0.00784374
-0.00815775
-0.00847756
-0.00880325
-0.00913492
-0.00947269
-0.00981666
-0.0101669
-0.0105236
-0.0108868
-0.0112567
-0.0116333
-0.0120168
-0.0124074
-0.0128049
-0.01321
-0.013622
-0.0140423
-0.014469
-0.0149054
-0.0153469
-0.0158002
-0.0162569
-0.016727
-0.0172012
-0.0176853
-0.0181808
-0.0186753
-0.019192
-0.0197003
-0.0202238
-0.0207541
-0.0212483
-0.0217559
0.0278168
0.0222386
0.012202
0.0047353
0.00224725
0.00238034
0.00255142
0.00250332
0.00262725
0.00264726
0.00227206
0.00192579
0.00182431
0.0016146
0.00129006
0.00108307
0.000922084
0.000786229
0.000761671
0.00072762
0.000628022
0.000610603
0.000660521
0.000618083
0.000502856
0.00043563
0.000406321
0.000339991
0.000235787
0.000130877
2.95114e-05
-8.28657e-05
-0.000208757
-0.000342712
-0.000482969
-0.000630721
-0.000786078
-0.000948301
-0.00111677
-0.00129114
-0.00147107
-0.00165627
-0.00184649
-0.00204159
-0.00224145
-0.002446
-0.00265519
-0.002869
-0.0030874
-0.0033104
-0.00353802
-0.00377027
-0.00400719
-0.00424881
-0.00449517
-0.00474633
-0.00500233
-0.00526324
-0.00552912
-0.00580003
-0.00607604
-0.00635724
-0.00664369
-0.00693548
-0.00723269
-0.00753541
-0.00784374
-0.00815775
-0.00847756
-0.00880325
-0.00913492
-0.00947269
-0.00981666
-0.0101669
-0.0105236
-0.0108868
-0.0112567
-0.0116333
-0.0120168
-0.0124074
-0.0128049
-0.01321
-0.013622
-0.0140423
-0.014469
-0.0149054
-0.0153469
-0.0158002
-0.0162569
-0.016727
-0.0172012
-0.0176853
-0.0181808
-0.0186753
-0.019192
-0.0197003
-0.0202238
-0.0207542
-0.0212483
-0.0217559
0.0268881
0.022093
0.0124379
0.00506381
0.00244882
0.0024568
0.00259043
0.0025364
0.00265289
0.00266515
0.00228692
0.00193975
0.00183654
0.00162476
0.00129887
0.00109098
0.00092871
0.000791341
0.000765762
0.00073112
0.000630827
0.000612525
0.000661665
0.000618807
0.000503495
0.000436217
0.000406712
0.000340169
0.000235882
0.000130969
2.95831e-05
-8.2834e-05
-0.000208746
-0.000342707
-0.000482965
-0.00063072
-0.000786079
-0.000948302
-0.00111677
-0.00129114
-0.00147107
-0.00165627
-0.00184649
-0.00204159
-0.00224145
-0.002446
-0.00265519
-0.002869
-0.0030874
-0.0033104
-0.00353802
-0.00377027
-0.00400719
-0.00424881
-0.00449517
-0.00474633
-0.00500233
-0.00526324
-0.00552912
-0.00580003
-0.00607604
-0.00635724
-0.00664369
-0.00693548
-0.00723269
-0.00753541
-0.00784374
-0.00815775
-0.00847756
-0.00880325
-0.00913492
-0.00947269
-0.00981666
-0.0101669
-0.0105236
-0.0108868
-0.0112567
-0.0116333
-0.0120168
-0.0124074
-0.0128049
-0.01321
-0.013622
-0.0140423
-0.014469
-0.0149054
-0.0153469
-0.0158002
-0.0162569
-0.016727
-0.0172012
-0.0176853
-0.0181808
-0.0186753
-0.019192
-0.0197003
-0.0202238
-0.0207542
-0.0212484
-0.021756
0.0259517
0.0218833
0.01267
0.00541046
0.00267114
0.00254308
0.00263611
0.00257941
0.00268746
0.00268864
0.00230728
0.00196004
0.00185429
0.00163996
0.00131306
0.00110416
0.000940195
0.000800659
0.000773152
0.000737534
0.000636566
0.000616739
0.000664007
0.000620271
0.000505015
0.000437652
0.000407614
0.00034061
0.000236189
0.000131253
2.97846e-05
-8.27358e-05
-0.000208699
-0.00034268
-0.000482948
-0.000630715
-0.000786079
-0.000948303
-0.00111677
-0.00129114
-0.00147107
-0.00165627
-0.00184649
-0.00204159
-0.00224145
-0.002446
-0.00265519
-0.00286899
-0.0030874
-0.0033104
-0.00353802
-0.00377027
-0.00400719
-0.00424881
-0.00449517
-0.00474633
-0.00500233
-0.00526324
-0.00552912
-0.00580003
-0.00607604
-0.00635724
-0.00664369
-0.00693548
-0.00723269
-0.00753541
-0.00784374
-0.00815775
-0.00847756
-0.00880325
-0.00913492
-0.00947269
-0.00981666
-0.0101669
-0.0105236
-0.0108868
-0.0112567
-0.0116333
-0.0120168
-0.0124074
-0.0128049
-0.01321
-0.013622
-0.0140423
-0.014469
-0.0149054
-0.0153469
-0.0158002
-0.0162569
-0.016727
-0.0172012
-0.0176853
-0.0181808
-0.0186753
-0.019192
-0.0197003
-0.0202238
-0.0207542
-0.0212484
-0.0217562
0.0250119
0.0216167
0.0128951
0.00576476
0.00290409
0.00263319
0.00268231
0.00262598
0.00272698
0.0027161
0.00233172
0.0019849
0.00187621
0.00165941
0.00133211
0.00112229
0.000956431
0.000814261
0.000783976
0.000747067
0.000645555
0.00062358
0.000667822
0.000622706
0.000507648
0.000440153
0.000409211
0.000341464
0.000236833
0.000131833
3.01965e-05
-8.25053e-05
-0.000208567
-0.000342597
-0.000482935
-0.000630693
-0.000786073
-0.000948302
-0.00111677
-0.00129114
-0.00147107
-0.00165627
-0.00184649
-0.00204159
-0.00224145
-0.002446
-0.00265519
-0.00286899
-0.00308739
-0.0033104
-0.00353802
-0.00377027
-0.00400719
-0.00424881
-0.00449517
-0.00474633
-0.00500233
-0.00526324
-0.00552912
-0.00580003
-0.00607604
-0.00635724
-0.00664369
-0.00693548
-0.00723269
-0.00753541
-0.00784374
-0.00815775
-0.00847756
-0.00880325
-0.00913492
-0.00947269
-0.00981666
-0.0101669
-0.0105236
-0.0108868
-0.0112567
-0.0116333
-0.0120168
-0.0124074
-0.0128049
-0.01321
-0.013622
-0.0140423
-0.014469
-0.0149054
-0.0153469
-0.0158002
-0.0162569
-0.016727
-0.0172012
-0.0176853
-0.0181808
-0.0186753
-0.019192
-0.0197003
-0.0202238
-0.0207542
-0.0212485
-0.0217563
0.0240871
0.0213049
0.0131098
0.00612243
0.00314632
0.00272736
0.00272779
0.00267335
0.00276949
0.00274662
0.00235891
0.00201244
0.00190057
0.00168148
0.00135427
0.00114372
0.000975957
0.00083093
0.000797371
0.00075905
0.000657191
0.000632659
0.000672986
0.000626096
0.000511352
0.000443683
0.000411519
0.000342777
0.000237858
0.000132747
3.08579e-05
-8.21045e-05
-0.00020832
-0.000342434
-0.000482834
-0.000630643
-0.000786051
-0.000948293
-0.00111677
-0.00129114
-0.00147107
-0.00165627
-0.00184649
-0.00204159
-0.00224145
-0.002446
-0.00265519
-0.00286899
-0.00308739
-0.0033104
-0.00353802
-0.00377027
-0.00400719
-0.00424881
-0.00449517
-0.00474633
-0.00500233
-0.00526324
-0.00552911
-0.00580003
-0.00607604
-0.00635724
-0.00664369
-0.00693548
-0.00723269
-0.00753541
-0.00784374
-0.00815775
-0.00847756
-0.00880325
-0.00913492
-0.00947269
-0.00981666
-0.0101669
-0.0105236
-0.0108868
-0.0112567
-0.0116333
-0.0120168
-0.0124074
-0.0128049
-0.01321
-0.013622
-0.0140423
-0.014469
-0.0149054
-0.0153469
-0.0158002
-0.0162569
-0.016727
-0.0172012
-0.0176853
-0.0181808
-0.0186753
-0.019192
-0.0197003
-0.0202238
-0.0207542
-0.0212487
-0.0217565
0.0231911
0.020949
0.0133051
0.00648148
0.00340047
0.00282814
0.00277266
0.00272033
0.00281407
0.00277967
0.00238812
0.00204178
0.0019266
0.00170517
0.00137823
0.00116705
0.000997389
0.000849404
0.000812356
0.000772594
0.000670525
0.000643223
0.000679116
0.000630198
0.000515843
0.000447984
0.000414392
0.00034448
0.000239209
0.00013395
3.17455e-05
-8.15403e-05
-0.000207952
-0.000342182
-0.000482675
-0.000630557
-0.000786009
-0.000948273
-0.00111676
-0.00129113
-0.00147107
-0.00165626
-0.00184649
-0.00204158
-0.00224144
-0.00244599
-0.00265519
-0.00286899
-0.00308739
-0.0033104
-0.00353801
-0.00377027
-0.00400719
-0.00424881
-0.00449517
-0.00474633
-0.00500233
-0.00526324
-0.00552911
-0.00580002
-0.00607604
-0.00635723
-0.00664369
-0.00693548
-0.00723269
-0.00753541
-0.00784374
-0.00815775
-0.00847756
-0.00880325
-0.00913492
-0.00947269
-0.00981666
-0.0101669
-0.0105236
-0.0108868
-0.0112567
-0.0116333
-0.0120168
-0.0124074
-0.0128049
-0.01321
-0.013622
-0.0140423
-0.014469
-0.0149054
-0.0153469
-0.0158002
-0.0162569
-0.016727
-0.0172012
-0.0176853
-0.0181808
-0.0186753
-0.019192
-0.0197003
-0.0202238
-0.0207543
-0.0212488
-0.0217568
0.0223304
0.0205495
0.0134759
0.00684287
0.00366877
0.00293658
0.00281636
0.00276574
0.00285994
0.00281491
0.00241909
0.00207268
0.00195407
0.00173008
0.00140335
0.00119157
0.00101997
0.00086898
0.00082836
0.000787123
0.00068489
0.000654719
0.000685895
0.000634778
0.000520835
0.000452791
0.000417661
0.000346463
0.000240793
0.000135359
3.28018e-05
-8.08486e-05
-0.000207488
-0.000341858
-0.000482464
-0.000630437
-0.000785945
-0.00094824
-0.00111674
-0.00129112
-0.00147106
-0.00165626
-0.00184648
-0.00204158
-0.00224144
-0.00244599
-0.00265518
-0.00286899
-0.00308739
-0.00331039
-0.00353801
-0.00377027
-0.00400718
-0.0042488
-0.00449517
-0.00474633
-0.00500233
-0.00526324
-0.00552911
-0.00580002
-0.00607604
-0.00635723
-0.00664369
-0.00693548
-0.00723269
-0.00753541
-0.00784374
-0.00815775
-0.00847756
-0.00880325
-0.00913492
-0.00947269
-0.00981666
-0.0101669
-0.0105236
-0.0108868
-0.0112567
-0.0116333
-0.0120168
-0.0124074
-0.0128049
-0.01321
-0.013622
-0.0140423
-0.014469
-0.0149054
-0.0153469
-0.0158002
-0.0162569
-0.016727
-0.0172012
-0.0176853
-0.0181808
-0.0186754
-0.019192
-0.0197003
-0.0202239
-0.0207543
-0.021249
-0.021757
0.0215097
0.0201128
0.0136199
0.00720396
0.00394987
0.00305308
0.0028591
0.00280899
0.00290654
0.00285219
0.00245184
0.00210513
0.0019829
0.0017561
0.00142945
0.00121702
0.00104343
0.000889396
0.000845147
0.000802375
0.000699981
0.00066689
0.000693168
0.000639702
0.000526165
0.000457949
0.000421216
0.000348649
0.000242539
0.000136914
3.39794e-05
-8.0064e-05
-0.000206953
-0.000341478
-0.000482212
-0.000630287
-0.000785861
-0.000948194
-0.00111672
-0.00129111
-0.00147105
-0.00165625
-0.00184647
-0.00204157
-0.00224143
-0.00244598
-0.00265518
-0.00286898
-0.00308738
-0.00331039
-0.00353801
-0.00377026
-0.00400718
-0.0042488
-0.00449517
-0.00474632
-0.00500233
-0.00526324
-0.00552911
-0.00580002
-0.00607604
-0.00635723
-0.00664369
-0.00693548
-0.00723269
-0.00753541
-0.00784374
-0.00815775
-0.00847756
-0.00880325
-0.00913492
-0.00947269
-0.00981666
-0.0101669
-0.0105236
-0.0108868
-0.0112567
-0.0116333
-0.0120168
-0.0124074
-0.0128049
-0.01321
-0.013622
-0.0140423
-0.014469
-0.0149054
-0.0153469
-0.0158002
-0.0162569
-0.016727
-0.0172012
-0.0176853
-0.0181808
-0.0186754
-0.019192
-0.0197003
-0.0202239
-0.0207543
-0.0212491
-0.0217573
0.0207357
0.0196478
0.0137316
0.00755841
0.00424256
0.00318009
0.00290235
0.00284962
0.00295308
0.00289135
0.00248652
0.00213922
0.00201318
0.00178328
0.00145652
0.00124336
0.00106771
0.000910584
0.000862639
0.000818273
0.000715718
0.000679669
0.000700887
0.000644921
0.000531767
0.000463397
0.000425014
0.000351003
0.000244412
0.000138583
3.52545e-05
-7.92046e-05
-0.000206362
-0.000341054
-0.000481925
-0.000630112
-0.00078576
-0.000948135
-0.00111668
-0.00129109
-0.00147104