/*--------------------------------*- C++ -*----------------------------------*\
| =========                 |                                                 |
| \\      /  F ield         | OpenFOAM: The Open Source CFD Toolbox           |
|  \\    /   O peration     | Version:  3.0.1                                 |
|   \\  /    A nd           | Web:      www.OpenFOAM.org                      |
|    \\/     M anipulation  |                                                 |
\*---------------------------------------------------------------------------*/
FoamFile
{
    version     2.0;
    format      ascii;
    class       surfaceScalarField;
    location    "0.1";
    object      phi;
}
// * * * * * * * * * * * * * * * * * * * * * * * * * * * * * * * * * * * * * //

dimensions      [0 3 -1 0 0 0 0];

internalField   nonuniform List<scalar> 
19000
(
1.19646e-06
-1.28632e-06
1.16083e-06
1.69204e-06
1.18678e-06
-6.3912e-07
1.17791e-06
-6.26158e-07
1.17209e-06
5.69649e-07
1.16388e-06
2.56787e-07
1.18111e-06
-4.42711e-07
1.17059e-06
-5.21007e-07
1.17425e-06
1.68098e-07
1.1609e-06
2.77601e-07
1.16767e-06
1.84489e-07
1.15584e-06
-2.43147e-07
1.17485e-06
-2.29078e-07
1.15592e-06
-2.10065e-07
1.1536e-06
-1.32787e-07
1.1635e-06
1.6837e-07
1.16835e-06
2.36749e-07
1.14334e-06
5.66648e-08
1.1465e-06
1.61253e-07
-1.73807e-07
1.09228e-06
1.25455e-06
-1.31661e-06
1.22431e-06
1.72229e-06
1.24991e-06
-6.64727e-07
1.23567e-06
-6.11914e-07
1.22632e-06
5.78994e-07
1.22437e-06
2.5874e-07
1.23839e-06
-4.56734e-07
1.22739e-06
-5.10008e-07
1.22736e-06
1.68131e-07
1.22266e-06
2.82299e-07
1.2218e-06
1.85351e-07
1.21605e-06
-2.37397e-07
1.22715e-06
-2.40174e-07
1.21883e-06
-2.01743e-07
1.20424e-06
-1.18201e-07
1.22765e-06
1.4496e-07
1.21634e-06
2.48055e-07
1.21521e-06
5.77991e-08
1.19111e-06
1.85352e-07
-1.6098e-07
1.17828e-06
1.31136e-06
-1.34518e-06
1.29414e-06
1.7395e-06
1.31132e-06
-6.81905e-07
1.29916e-06
-5.99755e-07
1.28683e-06
5.91317e-07
1.28952e-06
2.56053e-07
1.29652e-06
-4.63734e-07
1.28853e-06
-5.02016e-07
1.28398e-06
1.72682e-07
1.28775e-06
2.78527e-07
1.28193e-06
1.91169e-07
1.2809e-06
-2.36367e-07
1.28268e-06
-2.41953e-07
1.28301e-06
-2.02077e-07
1.26293e-06
-9.81147e-08
1.28111e-06
1.26779e-07
1.2785e-06
2.50662e-07
1.27534e-06
6.09628e-08
1.26547e-06
1.95214e-07
-1.38323e-07
1.24282e-06
1.36834e-06
-1.36942e-06
1.36461e-06
1.74324e-06
1.37021e-06
-6.87509e-07
1.36377e-06
-5.93309e-07
1.35335e-06
6.01737e-07
1.35694e-06
2.52458e-07
1.35501e-06
-4.61804e-07
1.35068e-06
-4.97679e-07
1.34646e-06
1.76895e-07
1.35364e-06
2.7135e-07
1.34772e-06
1.97092e-07
1.346e-06
-2.3465e-07
1.34274e-06
-2.38688e-07
1.34461e-06
-2.0395e-07
1.32918e-06
-8.26899e-08
1.33771e-06
1.1825e-07
1.34282e-06
2.45556e-07
1.34026e-06
6.35215e-08
1.33536e-06
2.00118e-07
-1.11625e-07
1.30866e-06
1.42604e-06
-1.38711e-06
1.43367e-06
1.7356e-06
1.42826e-06
-6.82097e-07
1.42726e-06
-5.92306e-07
1.42325e-06
6.05746e-07
1.42481e-06
2.50897e-07
1.4152e-06
-4.52191e-07
1.41292e-06
-4.95404e-07
1.4133e-06
1.76516e-07
1.42065e-06
2.64005e-07
1.41657e-06
2.01165e-07
1.41172e-06
-2.298e-07
1.40574e-06
-2.32705e-07
1.40665e-06
-2.04862e-07
1.39742e-06
-7.34601e-08
1.40215e-06
1.13524e-07
1.40814e-06
2.39568e-07
1.40743e-06
6.42307e-08
1.40535e-06
2.02191e-07
-8.28947e-08
1.37662e-06
1.48558e-06
-1.39701e-06
1.50119e-06
1.72e-06
1.48836e-06
-6.69265e-07
1.48978e-06
-5.93728e-07
1.49367e-06
6.0185e-07
1.49308e-06
2.51496e-07
1.47867e-06
-4.37782e-07
1.4765e-06
-4.93232e-07
1.48181e-06
1.71197e-07
1.48897e-06
2.56851e-07
1.48656e-06
2.03571e-07
1.47927e-06
-2.22511e-07
1.47128e-06
-2.2471e-07
1.47085e-06
-2.04436e-07
1.46588e-06
-6.84868e-08
1.47059e-06
1.08811e-07
1.47596e-06
2.34196e-07
1.47493e-06
6.52693e-08
1.47618e-06
2.00939e-07
-5.3588e-08
1.44687e-06
1.54838e-06
-1.39917e-06
1.56872e-06
1.69966e-06
1.55285e-06
-6.53395e-07
1.55327e-06
-5.94154e-07
1.56347e-06
5.91656e-07
1.5627e-06
2.52261e-07
1.54635e-06
-4.21425e-07
1.54289e-06
-4.89772e-07
1.55087e-06
1.63213e-07
1.55843e-06
2.49289e-07
1.55754e-06
2.04459e-07
1.54938e-06
-2.14346e-07
1.54008e-06
-2.15408e-07
1.5381e-06
-2.02464e-07
1.53528e-06
-6.56659e-08
1.54059e-06
1.03501e-07
1.54608e-06
2.2871e-07
1.54345e-06
6.79009e-08
1.54749e-06
1.96896e-07
-2.53671e-08
1.51927e-06
1.61558e-06
-1.39463e-06
1.63848e-06
1.67676e-06
1.62269e-06
-6.37611e-07
1.62005e-06
-5.91517e-07
1.63369e-06
5.78024e-07
1.63484e-06
2.51104e-07
1.61848e-06
-4.05066e-07
1.61305e-06
-4.84337e-07
1.62129e-06
1.54969e-07
1.62956e-06
2.41018e-07
1.63041e-06
2.03613e-07
1.62253e-06
-2.06462e-07
1.61274e-06
-2.05621e-07
1.60912e-06
-1.98847e-07
1.60688e-06
-6.34246e-08
1.6121e-06
9.82799e-08
1.61843e-06
2.22381e-07
1.61422e-06
7.21167e-08
1.62015e-06
1.90965e-07
7.41191e-10
1.59404e-06
1.68786e-06
-1.38491e-06
1.71226e-06
1.65237e-06
1.69776e-06
-6.23113e-07
1.69175e-06
-5.85504e-07
1.70648e-06
5.63287e-07
1.71046e-06
2.47124e-07
1.695e-06
-3.89601e-07
1.68752e-06
-4.76856e-07
1.69472e-06
1.47764e-07
1.70363e-06
2.32108e-07
1.70628e-06
2.00964e-07
1.69912e-06
-1.99298e-07
1.68948e-06
-1.95986e-07
1.68433e-06
-1.93697e-07
1.68187e-06
-6.09619e-08
1.68621e-06
9.39431e-08
1.69371e-06
2.14879e-07
1.68838e-06
7.7447e-08
1.69543e-06
1.83916e-07
2.43835e-08
1.67178e-06
1.76537e-06
-1.37156e-06
1.79098e-06
1.62675e-06
1.77757e-06
-6.09697e-07
1.76901e-06
-5.7695e-07
1.78366e-06
5.48641e-07
1.79021e-06
2.40576e-07
1.77572e-06
-3.7512e-07
1.76655e-06
-4.67682e-07
1.7725e-06
1.41812e-07
1.78185e-06
2.22766e-07
1.78603e-06
1.96779e-07
1.77945e-06
-1.92716e-07
1.77031e-06
-1.86849e-07
1.76385e-06
-1.87232e-07
1.76108e-06
-5.81946e-08
1.76409e-06
9.09341e-08
1.77274e-06
2.06228e-07
1.76677e-06
8.34165e-08
1.77429e-06
1.764e-07
4.54877e-08
1.75318e-06
1.84794e-06
-1.35576e-06
1.87485e-06
1.59985e-06
1.86176e-06
-5.96609e-07
1.8518e-06
-5.66993e-07
1.866e-06
5.3444e-07
1.87438e-06
2.32197e-07
1.86057e-06
-3.61312e-07
1.8502e-06
-4.57314e-07
1.85526e-06
1.3676e-07
1.86483e-06
2.13191e-07
1.87013e-06
1.91479e-07
1.86374e-06
-1.86324e-07
1.85524e-06
-1.78352e-07
1.84766e-06
-1.79646e-07
1.8449e-06
-5.54341e-08
1.84652e-06
8.93078e-08
1.85607e-06
1.96685e-07
1.84983e-06
8.96476e-08
1.85721e-06
1.69025e-07
6.39834e-08
1.83871e-06
1.93533e-06
-1.33825e-06
1.96368e-06
1.57151e-06
1.95021e-06
-5.83139e-07
1.93977e-06
-5.56561e-07
1.95353e-06
5.20681e-07
1.96307e-06
2.22656e-07
1.94957e-06
-3.47811e-07
1.93843e-06
-4.46174e-07
1.94304e-06
1.32155e-07
1.95269e-06
2.03539e-07
1.95875e-06
1.85417e-07
1.95215e-06
-1.79727e-07
1.94435e-06
-1.70544e-07
1.93576e-06
-1.71057e-07
1.93336e-06
-5.30375e-08
1.9338e-06
8.88737e-08
1.94385e-06
1.86635e-07
1.93769e-06
9.58057e-08
1.94434e-06
1.62376e-07
7.97013e-08
1.92862e-06
2.02738e-06
-1.31944e-06
2.05729e-06
1.5416e-06
2.04297e-06
-5.68817e-07
2.03264e-06
-5.46232e-07
2.04601e-06
5.0731e-07
2.0563e-06
2.12363e-07
2.04286e-06
-3.34366e-07
2.03121e-06
-4.34523e-07
2.0357e-06
1.27666e-07
2.0453e-06
1.93933e-07
2.05193e-06
1.78794e-07
2.04484e-06
-1.72644e-07
2.03776e-06
-1.63456e-07
2.02823e-06
-1.61529e-07
2.0264e-06
-5.12089e-08
2.02594e-06
8.93329e-08
2.03606e-06
1.76515e-07
2.03032e-06
1.01545e-07
2.03579e-06
1.56908e-07
9.25287e-08
2.02296e-06
2.12406e-06
-1.2995e-06
2.15562e-06
1.51003e-06
2.1402e-06
-5.53394e-07
2.13028e-06
-5.36313e-07
2.14327e-06
4.94317e-07
2.15413e-06
2.01508e-07
2.14061e-06
-3.2085e-07
2.12858e-06
-4.22487e-07
2.13314e-06
1.23101e-07
2.1426e-06
1.84472e-07
2.14972e-06
1.71676e-07
2.14198e-06
-1.64906e-07
2.13564e-06
-1.57113e-07
2.12523e-06
-1.51125e-07
2.12398e-06
-4.99578e-08
2.12297e-06
9.03516e-08
2.1327e-06
1.66775e-07
2.12775e-06
1.06501e-07
2.13184e-06
1.52817e-07
1.02599e-07
2.12177e-06
2.22546e-06
-1.27847e-06
2.25873e-06
1.47676e-06
2.24209e-06
-5.36748e-07
2.23273e-06
-5.26958e-07
2.24532e-06
4.81728e-07
2.25667e-06
1.90165e-07
2.24305e-06
-3.0723e-07
2.23066e-06
-4.10104e-07
2.23541e-06
1.18356e-07
2.24463e-06
1.75255e-07
2.25225e-06
1.64051e-07
2.24377e-06
-1.56423e-07
2.23817e-06
-1.51518e-07
2.227e-06
-1.39954e-07
2.22618e-06
-4.91333e-08
2.22496e-06
9.15696e-08
2.23386e-06
1.57877e-07
2.23002e-06
1.10338e-07
2.23279e-06
1.50047e-07
1.10288e-07
2.2251e-06
2.33177e-06
-1.25637e-06
2.36678e-06
1.44175e-06
2.34886e-06
-5.18826e-07
2.34015e-06
-5.1825e-07
2.3523e-06
4.69586e-07
2.3641e-06
1.78363e-07
2.35039e-06
-2.93524e-07
2.33766e-06
-3.97369e-07
2.34265e-06
1.13358e-07
2.35153e-06
1.66383e-07
2.3597e-06
1.5588e-07
2.35043e-06
-1.47157e-07
2.34555e-06
-1.46635e-07
2.33379e-06
-1.28192e-07
2.33312e-06
-4.84668e-08
2.33207e-06
9.26169e-08
2.33972e-06
1.50225e-07
2.33722e-06
1.1284e-07
2.33892e-06
1.48352e-07
1.16101e-07
2.3331e-06
2.44319e-06
-1.23316e-06
2.47998e-06
1.40496e-06
2.46075e-06
-4.99603e-07
2.45274e-06
-5.10239e-07
2.4644e-06
4.5793e-07
2.47663e-06
1.66129e-07
2.46289e-06
-2.79782e-07
2.44977e-06
-3.84252e-07
2.45509e-06
1.08042e-07
2.46351e-06
1.57962e-07
2.47227e-06
1.47124e-07
2.46223e-06
-1.37122e-07
2.45796e-06
-1.42364e-07
2.44586e-06
-1.16093e-07
2.44501e-06
-4.76164e-08
2.44449e-06
9.31379e-08
2.45061e-06
1.44109e-07
2.44946e-06
1.13981e-07
2.45047e-06
1.47343e-07
1.20572e-07
2.446e-06
2.55997e-06
-1.20884e-06
2.59854e-06
1.36639e-06
2.57801e-06
-4.7907e-07
2.57073e-06
-5.02959e-07
2.58187e-06
4.46787e-07
2.5945e-06
1.53505e-07
2.58079e-06
-2.66078e-07
2.56725e-06
-3.70706e-07
2.57295e-06
1.02335e-07
2.58082e-06
1.50095e-07
2.59018e-06
1.37767e-07
2.57944e-06
-1.26385e-07
2.57562e-06
-1.38544e-07
2.56351e-06
-1.03981e-07
2.56209e-06
-4.61999e-08
2.56239e-06
9.28392e-08
2.56692e-06
1.39581e-07
2.56689e-06
1.14011e-07
2.56769e-06
1.4654e-07
1.2416e-07
2.5641e-06
2.68238e-06
-1.18339e-06
2.72274e-06
1.32603e-06
2.7009e-06
-4.57231e-07
2.69437e-06
-4.9643e-07
2.70499e-06
4.36167e-07
2.71794e-06
1.40557e-07
2.70437e-06
-2.52509e-07
2.69033e-06
-3.56667e-07
2.6965e-06
9.61599e-08
2.70372e-06
1.4288e-07
2.71366e-06
1.2783e-07
2.70235e-06
-1.15076e-07
2.69875e-06
-1.34943e-07
2.68698e-06
-9.22131e-08
2.68465e-06
-4.38669e-08
2.68594e-06
9.15474e-08
2.68911e-06
1.36409e-07
2.68971e-06
1.13413e-07
2.69076e-06
1.45489e-07
1.27179e-07
2.68774e-06
2.81067e-06
-1.15679e-06
2.85281e-06
1.28388e-06
2.82969e-06
-4.34103e-07
2.82391e-06
-4.90657e-07
2.83402e-06
4.26062e-07
2.8472e-06
1.27374e-07
2.83389e-06
-2.39193e-07
2.81928e-06
-3.42064e-07
2.82601e-06
8.94376e-08
2.83249e-06
1.36393e-07
2.84295e-06
1.17375e-07
2.83125e-06
-1.03383e-07
2.82759e-06
-1.31279e-07
2.81654e-06
-8.11629e-08
2.81299e-06
-4.03193e-08
2.81531e-06
8.92315e-08
2.81753e-06
1.34186e-07
2.81825e-06
1.12696e-07
2.81987e-06
1.43871e-07
1.29764e-07
2.81728e-06
2.94513e-06
-1.12903e-06
2.98906e-06
1.23996e-06
2.96467e-06
-4.09718e-07
2.95965e-06
-4.85632e-07
2.96927e-06
4.1644e-07
2.98257e-06
1.14072e-07
2.96964e-06
-2.26269e-07
2.9544e-06
-3.26816e-07
2.96173e-06
8.21007e-08
2.96745e-06
1.30677e-07
2.9783e-06
1.0653e-07
2.96648e-06
-9.15636e-08
2.96243e-06
-1.27228e-07
2.95244e-06
-7.11773e-08
2.9475e-06
-3.53829e-08
2.95067e-06
8.60659e-08
2.95244e-06
1.32414e-07
2.9529e-06
1.12242e-07
2.95519e-06
1.4158e-07
1.31887e-07
2.95306e-06
3.08608e-06
-1.1001e-06
3.13175e-06
1.19429e-06
3.10615e-06
-3.84121e-07
3.10185e-06
-4.81328e-07
3.11104e-06
4.07251e-07
3.12431e-06
1.00793e-07
3.11194e-06
-2.13894e-07
3.09597e-06
-3.10841e-07
3.10396e-06
7.41042e-08
3.10892e-06
1.25719e-07
3.11996e-06
9.54851e-08
3.10832e-06
-7.99203e-08
3.10357e-06
-1.22474e-07
3.0949e-06
-6.25086e-08
3.08863e-06
-2.91159e-08
3.09223e-06
8.24666e-08
3.09408e-06
1.30567e-07
3.09409e-06
1.12227e-07
3.09694e-06
1.38735e-07
1.33409e-07
3.09541e-06
3.23382e-06
-1.07001e-06
3.28119e-06
1.14693e-06
3.25445e-06
-3.57378e-07
3.25082e-06
-4.77699e-07
3.25965e-06
3.9842e-07
3.27274e-06
8.77059e-08
3.26109e-06
-2.02243e-07
3.24431e-06
-2.94066e-07
3.25298e-06
6.544e-08
3.25725e-06
1.21448e-07
3.26824e-06
8.44949e-08
3.2571e-06
-6.87891e-08
3.25135e-06
-1.16718e-07
3.2441e-06
-5.52581e-08
3.23681e-06
-2.18229e-08
3.24032e-06
7.89532e-08
3.24262e-06
1.28264e-07
3.24227e-06
1.12583e-07
3.24539e-06
1.35607e-07
1.34191e-07
3.24461e-06
3.38869e-06
-1.03877e-06
3.4377e-06
1.09792e-06
3.4099e-06
-3.29573e-07
3.40687e-06
-4.74678e-07
3.41545e-06
3.89845e-07
3.42815e-06
7.50036e-08
3.4174e-06
-1.91494e-07
3.39978e-06
-2.76439e-07
3.40907e-06
5.61485e-08
3.41279e-06
1.17726e-07
3.42342e-06
7.38679e-08
3.41314e-06
-5.85153e-08
3.40617e-06
-1.09742e-07
3.40026e-06
-4.93486e-08
3.39241e-06
-1.39773e-08
3.39536e-06
7.60091e-08
3.39829e-06
1.25327e-07
3.39779e-06
1.13091e-07
3.40093e-06
1.32459e-07
1.34189e-07
3.40093e-06
3.55104e-06
-1.0064e-06
3.60161e-06
1.04734e-06
3.57284e-06
-3.00808e-07
3.57034e-06
-4.72176e-07
3.57879e-06
3.81403e-07
3.59089e-06
6.29023e-08
3.58122e-06
-1.8183e-07
3.56272e-06
-2.57936e-07
3.57254e-06
4.63244e-08
3.57593e-06
1.14343e-07
3.58583e-06
6.39623e-08
3.57673e-06
-4.94177e-08
3.56846e-06
-1.01467e-07
3.56363e-06
-4.4521e-08
3.55577e-06
-6.11996e-09
3.55783e-06
7.39584e-08
3.56132e-06
1.21833e-07
3.56098e-06
1.13428e-07
3.56395e-06
1.29493e-07
1.33449e-07
3.56469e-06
3.72122e-06
-9.72913e-07
3.77326e-06
9.95301e-07
3.74366e-06
-2.7121e-07
3.74157e-06
-4.70081e-07
3.75003e-06
3.72942e-07
3.7613e-06
5.16353e-08
3.75289e-06
-1.73425e-07
3.73353e-06
-2.38573e-07
3.74373e-06
3.61278e-08
3.74704e-06
1.11032e-07
3.75585e-06
5.51517e-08
3.74818e-06
-4.17468e-08
3.7387e-06
-9.19916e-08
3.73454e-06
-4.0355e-08
3.72718e-06
1.23601e-09
3.72824e-06
7.28985e-08
3.73201e-06
1.18064e-07
3.73215e-06
1.13285e-07
3.73485e-06
1.2679e-07
1.32072e-07
3.73623e-06
3.89963e-06
-9.38359e-07
3.95302e-06
9.41914e-07
3.92274e-06
-2.40929e-07
3.92091e-06
-4.68256e-07
3.92957e-06
3.64286e-07
3.93976e-06
4.14483e-08
3.93276e-06
-1.66433e-07
3.91261e-06
-2.18421e-07
3.92295e-06
2.5794e-08
3.92652e-06
1.07461e-07
3.93387e-06
4.77967e-08
3.92775e-06
-3.56273e-08
3.91735e-06
-8.159e-08
3.91337e-06
-3.63733e-08
3.90689e-06
7.71319e-09
3.90707e-06
7.272e-08
3.91079e-06
1.14347e-07
3.91155e-06
1.12521e-07
3.91407e-06
1.24273e-07
1.30214e-07
3.91593e-06
4.08668e-06
-9.02784e-07
4.14127e-06
8.87324e-07
4.11048e-06
-2.1014e-07
4.10876e-06
-4.66535e-07
4.11781e-06
3.55234e-07
4.12666e-06
3.25904e-08
4.1212e-06
-1.60971e-07
4.1004e-06
-1.97617e-07
4.11057e-06
1.56253e-08
4.11476e-06
1.03271e-07
4.12034e-06
4.22098e-08
4.11575e-06
-3.10327e-08
4.10486e-06
-7.06964e-08
4.10058e-06
-3.20935e-08
4.09518e-06
1.31069e-08
4.09475e-06
7.31489e-08
4.09814e-06
1.10961e-07
4.0995e-06
1.11164e-07
4.102e-06
1.21768e-07
1.28036e-07
4.10418e-06
4.28277e-06
-8.6625e-07
4.33839e-06
8.31698e-07
4.3073e-06
-1.79045e-07
4.30549e-06
-4.64726e-07
4.31516e-06
3.45567e-07
4.32245e-06
2.53025e-08
4.31858e-06
-1.57109e-07
4.29734e-06
-1.76369e-07
4.30697e-06
5.98649e-09
4.31212e-06
9.81252e-08
4.31578e-06
3.85509e-08
4.31247e-06
-2.77223e-08
4.30165e-06
-5.98725e-08
4.29667e-06
-2.71152e-08
4.29232e-06
1.74495e-08
4.29171e-06
7.3762e-08
4.29456e-06
1.08109e-07
4.29636e-06
1.09363e-07
4.29903e-06
1.19103e-07
1.25651e-07
4.30141e-06
4.48836e-06
-8.28834e-07
4.54482e-06
7.75232e-07
4.51365e-06
-1.47874e-07
4.51154e-06
-4.6261e-07
4.52206e-06
3.35046e-07
4.52755e-06
1.98049e-08
4.5253e-06
-1.54855e-07
4.50389e-06
-1.5496e-07
4.51259e-06
-2.71179e-09
4.51898e-06
9.17341e-08
4.52072e-06
3.68136e-08
4.51828e-06
-2.52813e-08
4.5081e-06
-4.96913e-08
4.50223e-06
-2.12533e-08
4.49865e-06
2.10311e-08
4.4983e-06
7.41173e-08
4.50061e-06
1.05795e-07
4.50257e-06
1.074e-07
4.50552e-06
1.16154e-07
1.23078e-07
4.5081e-06
4.70391e-06
-7.90626e-07
4.76099e-06
7.1815e-07
4.73e-06
-1.16885e-07
4.72733e-06
-4.59942e-07
4.73895e-06
3.23431e-07
4.74247e-06
1.62776e-08
4.74176e-06
-1.54141e-07
4.72055e-06
-1.33744e-07
4.72788e-06
-1.00477e-08
4.7357e-06
8.3914e-08
4.73572e-06
3.6796e-08
4.7336e-06
-2.31606e-08
4.72457e-06
-4.0658e-08
4.71788e-06
-1.45661e-08
4.71464e-06
2.42649e-08
4.71481e-06
7.39543e-08
4.71681e-06
1.03789e-07
4.71865e-06
1.05567e-07
4.72186e-06
1.12935e-07
1.2025e-07
4.72469e-06
4.9299e-06
-7.51733e-07
4.98735e-06
6.60704e-07
4.95683e-06
-8.63641e-08
4.95334e-06
-4.56453e-07
4.96629e-06
3.10481e-07
4.96772e-06
1.48517e-08
4.9684e-06
-1.54821e-07
4.9478e-06
-1.13145e-07
4.95336e-06
-1.56062e-08
4.96266e-06
7.46076e-08
4.96133e-06
3.81253e-08
4.95895e-06
-2.07749e-08
4.95139e-06
-3.31036e-08
4.94418e-06
-7.35676e-09
4.94084e-06
2.76052e-08
4.9416e-06
7.3198e-08
4.94361e-06
1.01776e-07
4.94517e-06
1.04015e-07
4.94846e-06
1.09638e-07
1.17069e-07
4.95164e-06
5.16686e-06
-7.12278e-07
5.22439e-06
6.03178e-07
5.19465e-06
-5.66239e-08
5.19005e-06
-4.51858e-07
5.20456e-06
2.95978e-07
5.20383e-06
1.55774e-08
5.20566e-06
-1.56651e-07
5.18614e-06
-9.36292e-08
5.18959e-06
-1.90499e-08
5.20025e-06
6.39408e-08
5.19811e-06
4.02726e-08
5.19492e-06
-1.75925e-08
5.18892e-06
-2.70949e-08
5.18168e-06
-1.21029e-10
5.1779e-06
3.13886e-08
5.17907e-06
7.20257e-08
5.18143e-06
9.94165e-08
5.18273e-06
1.02709e-07
5.18582e-06
1.0655e-07
1.13512e-07
5.18938e-06
5.41531e-06
-6.72403e-07
5.47261e-06
5.45884e-07
5.44399e-06
-2.80014e-08
5.43799e-06
-4.45857e-07
5.45422e-06
2.79742e-07
5.45138e-06
1.84167e-08
5.45403e-06
-1.59301e-07
5.4361e-06
-7.5695e-08
5.43716e-06
-2.0111e-08
5.44892e-06
5.21827e-08
5.44657e-06
4.26194e-08
5.44215e-06
-1.31771e-08
5.43755e-06
-2.24863e-08
5.43085e-06
6.57024e-09
5.42646e-06
3.5786e-08
5.42771e-06
7.07709e-08
5.43064e-06
9.64854e-08
5.43192e-06
1.01429e-07
5.43455e-06
1.03925e-07
1.0972e-07
5.43834e-06
5.67582e-06
-6.32265e-07
5.73254e-06
4.89162e-07
5.70539e-06
-8.48773e-10
5.69769e-06
-4.38159e-07
5.71579e-06
2.61642e-07
5.71097e-06
2.32369e-08
5.71403e-06
-1.62358e-07
5.69817e-06
-5.98339e-08
5.69672e-06
-1.86612e-08
5.70912e-06
3.97787e-08
5.70723e-06
4.45106e-08
5.70136e-06
-7.30759e-09
5.69774e-06
-1.88647e-08
5.69213e-06
1.21753e-08
5.68721e-06
4.07065e-08
5.68813e-06
6.98483e-08
5.69166e-06
9.29568e-08
5.69326e-06
9.9837e-08
5.69533e-06
1.01847e-07
1.05984e-07
5.69907e-06
5.94897e-06
-5.92038e-07
6.00475e-06
4.33381e-07
5.97943e-06
2.44689e-08
5.96976e-06
-4.28484e-07
5.98977e-06
2.41624e-07
5.98322e-06
2.9793e-08
5.9862e-06
-1.65344e-07
5.97285e-06
-4.64793e-08
5.96893e-06
-1.47387e-08
5.98141e-06
2.7294e-08
5.98055e-06
4.53673e-08
5.97325e-06
-4.85266e-12
5.97006e-06
-1.56785e-08
5.96592e-06
1.63195e-08
5.96081e-06
4.58185e-08
5.96102e-06
6.96327e-08
5.96493e-06
8.90542e-08
5.9672e-06
9.75677e-08
5.96885e-06
1.00191e-07
1.02644e-07
5.97219e-06
6.23536e-06
-5.51912e-07
6.28982e-06
3.78926e-07
6.2667e-06
4.75864e-08
6.2548e-06
-4.16588e-07
6.27671e-06
2.19722e-07
6.26876e-06
3.77376e-08
6.27115e-06
-1.67735e-07
6.26065e-06
-3.59793e-08
6.25448e-06
-8.56259e-09
6.26638e-06
1.53939e-08
6.26702e-06
4.47291e-08
6.25855e-06
8.45969e-09
6.25519e-06
-1.23138e-08
6.25264e-06
1.88617e-08
6.24784e-06
5.06208e-08
6.24713e-06
7.03466e-08
6.25101e-06
8.51737e-08
6.25418e-06
9.43968e-08
6.25575e-06
9.8619e-08
9.99415e-08
6.25845e-06
6.53565e-06
-5.12091e-07
6.58838e-06
3.26198e-07
6.56781e-06
6.81507e-08
6.55351e-06
-4.02287e-07
6.57715e-06
1.96085e-07
6.56826e-06
4.66212e-08
6.56953e-06
-1.69001e-07
6.56209e-06
-2.85401e-08
6.55407e-06
-5.43718e-10
6.56467e-06
4.79036e-09
6.56709e-06
4.23087e-08
6.55796e-06
1.75931e-08
6.55386e-06
-8.21277e-09
6.55279e-06
1.99364e-08
6.54884e-06
5.45651e-08
6.54722e-06
7.19691e-08
6.55062e-06
8.17763e-08
6.55462e-06
9.03917e-08
6.55659e-06
9.66465e-08
9.78991e-08
6.55864e-06
6.85049e-06
-4.7279e-07
6.90108e-06
2.75607e-07
6.8834e-06
8.58348e-08
6.86659e-06
-3.85483e-07
6.89169e-06
1.70984e-07
6.88241e-06
5.59081e-08
6.88202e-06
-1.68612e-07
6.8777e-06
-2.42231e-08
6.86842e-06
8.73942e-09
6.87704e-06
-3.83391e-09
6.88129e-06
3.80612e-08
6.87216e-06
2.67176e-08
6.8669e-06
-2.95048e-09
6.86693e-06
1.99073e-08
6.8643e-06
5.71908e-08
6.86204e-06
7.42317e-08
6.86456e-06
7.92551e-08
6.86905e-06
8.59021e-08
6.87186e-06
9.38417e-08
9.62458e-08
6.87351e-06
7.18058e-06
-4.34229e-07
7.22863e-06
2.27555e-07
7.21411e-06
1.00358e-07
7.1948e-06
-3.66181e-07
7.22097e-06
1.44815e-07
7.21186e-06
6.50192e-08
7.20938e-06
-1.66132e-07
7.20805e-06
-2.28923e-08
7.1982e-06
1.85955e-08
7.2043e-06
-9.93897e-09
7.21017e-06
3.21915e-08
7.2018e-06
3.50841e-08
7.19516e-06
3.68872e-09
7.19576e-06
1.93106e-08
7.19474e-06
5.82132e-08
7.19229e-06
7.66787e-08
7.19371e-06
7.784e-08
7.1982e-06
8.14123e-08
7.20198e-06
9.00554e-08
9.44649e-08
7.20376e-06
7.52663e-06
-3.96636e-07
7.57176e-06
1.8243e-07
7.56062e-06
1.11497e-07
7.53894e-06
-3.44503e-07
7.56568e-06
1.18076e-07
7.55733e-06
7.33644e-08
7.55243e-06
-1.61232e-07
7.55377e-06
-2.42301e-08
7.5441e-06
2.82675e-08
7.54734e-06
-1.31796e-08
7.55442e-06
2.5114e-08
7.54746e-06
4.20453e-08
7.53955e-06
1.15907e-08
7.54006e-06
1.8808e-08
7.54069e-06
5.75807e-08
7.53861e-06
7.87577e-08
7.53892e-06
7.75333e-08
7.54293e-06
7.73965e-08
7.54748e-06
8.55089e-08
9.1975e-08
7.54997e-06
7.88941e-06
-3.60233e-07
7.93125e-06
1.40589e-07
7.92363e-06
1.19114e-07
7.89982e-06
-3.20691e-07
7.92654e-06
9.13569e-08
7.91954e-06
8.03691e-08
7.91204e-06
-1.53741e-07
7.91556e-06
-2.77419e-08
7.90681e-06
3.70146e-08
7.90708e-06
-1.34552e-08
7.91475e-06
1.74507e-08
7.90973e-06
4.70667e-08
7.90093e-06
2.03895e-08
7.90071e-06
1.90254e-08
7.9028e-06
5.54955e-08
7.90161e-06
7.99383e-08
7.90103e-06
7.8117e-08
7.90422e-06
7.42057e-08
7.90904e-06
8.0686e-08
8.84059e-08
7.91261e-06
8.26969e-06
-3.25237e-07
8.30793e-06
1.02347e-07
8.30388e-06
1.23163e-07
8.27829e-06
-2.95102e-07
8.30435e-06
6.52956e-08
8.29919e-06
8.55266e-08
8.28914e-06
-1.43687e-07
8.29416e-06
-3.27638e-08
8.28701e-06
4.41616e-08
8.28449e-06
-1.09303e-08
8.29198e-06
9.95731e-09
8.28923e-06
4.98164e-08
8.28009e-06
2.95302e-08
8.27869e-06
2.04224e-08
8.2818e-06
5.23878e-08
8.28192e-06
7.98199e-08
8.28082e-06
7.92132e-08
8.28303e-06
7.20014e-08
8.28761e-06
7.61009e-08
8.38292e-08
8.29219e-06
8.66827e-06
-2.9185e-07
8.70267e-06
6.79563e-08
8.70212e-06
1.23712e-07
8.67522e-06
-2.682e-07
8.69996e-06
4.0553e-08
8.69705e-06
8.84318e-08
8.68466e-06
-1.31298e-07
8.69043e-06
-3.85261e-08
8.68542e-06
4.91665e-08
8.68048e-06
-5.9849e-09
8.68706e-06
3.37519e-09
8.68663e-06
5.02481e-08
8.67782e-06
3.83322e-08
8.67503e-06
2.32163e-08
8.67858e-06
4.88415e-08
8.68017e-06
7.8223e-08
8.67904e-06
8.03465e-08
8.68029e-06
7.07501e-08
8.68427e-06
7.21213e-08
7.87366e-08
8.68936e-06
9.08602e-06
-2.60254e-07
9.11638e-06
3.76026e-08
9.11915e-06
1.20941e-07
9.09149e-06
-2.40541e-07
9.11429e-06
1.77555e-08
9.11388e-06
8.88343e-08
9.09957e-06
-1.16986e-07
9.10528e-06
-4.4236e-08
9.10275e-06
5.16976e-08
9.09598e-06
7.88423e-10
9.10097e-06
-1.61999e-09
9.10265e-06
4.857e-08
9.09487e-06
4.61132e-08
9.09075e-06
2.73323e-08
9.0941e-06
4.54952e-08
9.0971e-06
7.52259e-08
9.09642e-06
8.10192e-08
9.09689e-06
7.02816e-08
9.10012e-06
6.88936e-08
7.37752e-08
9.10508e-06
9.52381e-06
-2.30604e-07
9.55003e-06
1.13842e-08
9.55581e-06
1.15159e-07
9.52801e-06
-2.12742e-07
9.54831e-06
-2.53811e-09
9.55049e-06
8.66506e-08
9.53482e-06
-1.01314e-07
9.53973e-06
-4.91533e-08
9.53973e-06
5.17013e-08
9.53191e-06
8.60993e-09
9.53481e-06
-4.51766e-09
9.53817e-06
4.52116e-08
9.53197e-06
5.23044e-08
9.52686e-06
3.2448e-08
9.52943e-06
4.29187e-08
9.53352e-06
7.11385e-08
9.53376e-06
8.07861e-08
9.53368e-06
7.03612e-08
9.5362e-06
6.63679e-08
6.94318e-08
9.54054e-06
9.98256e-06
-2.03026e-07
1.00046e-05
-1.06863e-08
1.0013e-05
1.06776e-07
9.98571e-06
-1.85443e-07
1.00031e-05
-1.98779e-08
1.00077e-05
8.19793e-08
9.99136e-06
-8.49535e-08
9.99486e-06
-5.26515e-08
9.99719e-06
4.93708e-08
9.98912e-06
1.66781e-08
9.98971e-06
-5.10718e-09
9.99413e-06
4.07906e-08
9.98992e-06
5.65217e-08
9.9843e-06
3.80635e-08
9.98572e-06
4.14945e-08
9.99042e-06
6.64394e-08
9.99184e-06
7.93651e-08
9.99151e-06
7.06992e-08
9.99347e-06
6.44081e-08
6.58868e-08
9.99701e-06
1.04632e-05
-1.77608e-07
1.04812e-05
-2.86938e-08
1.04917e-05
9.629e-08
1.04655e-05
-1.59262e-07
1.04796e-05
-3.3965e-08
1.04865e-05
7.51037e-08
1.04702e-05
-6.86219e-08
1.04718e-05
-5.42775e-08
1.0476e-05
4.51141e-08
1.04685e-05
2.42194e-08
1.04669e-05
-3.45743e-09
1.04716e-05
3.60203e-08
1.04695e-05
5.8622e-08
1.0464e-05
4.35993e-08
1.04641e-05
4.13413e-08
1.04689e-05
6.16882e-08
1.04715e-05
7.67115e-08
1.04713e-05
7.09304e-08
1.04728e-05
6.29125e-08
6.3027e-08
1.04757e-05
1.09668e-05
-1.54397e-07
1.09809e-05
-4.28139e-08
1.0993e-05
8.4254e-08
1.09685e-05
-1.34751e-07
1.09792e-05
-4.46704e-08
1.09878e-05
6.64755e-08
1.09722e-05
-5.30158e-08
1.09717e-05
-5.38189e-08
1.09773e-05
3.95033e-08
1.0971e-05
3.06003e-08
1.09674e-05
1.03147e-10
1.09718e-05
3.15739e-08
1.09717e-05
5.87407e-08
1.09668e-05
4.84935e-08
1.09659e-05
4.23039e-08
1.09701e-05
5.74173e-08
1.09738e-05
7.30274e-08
1.09741e-05
7.06633e-08
1.09752e-05
6.18277e-08
6.05965e-08
1.09776e-05
1.14944e-05
-1.33402e-07
1.15049e-05
-5.33121e-08
1.15179e-05
7.12536e-08
1.14955e-05
-1.1237e-07
1.15028e-05
-5.20282e-08
1.15127e-05
5.66461e-08
1.14984e-05
-3.87565e-08
1.14959e-05
-5.12693e-08
1.15022e-05
3.31901e-08
1.14974e-05
3.53937e-08
1.14925e-05
5.02115e-09
1.1496e-05
2.80111e-08
1.14975e-05
5.72402e-08
1.14937e-05
5.23004e-08
1.1492e-05
4.4033e-08
1.14954e-05
5.40016e-08
1.14997e-05
6.87033e-08
1.15008e-05
6.95902e-08
1.15016e-05
6.10491e-08
5.84041e-08
1.15038e-05
1.2047e-05
-1.14594e-07
1.20542e-05
-6.05157e-08
1.20676e-05
5.78577e-08
1.20477e-05
-9.24507e-08
1.20519e-05
-5.62453e-08
1.20623e-05
4.62249e-08
1.20499e-05
-2.63082e-08
1.20455e-05
-4.68552e-08
1.20518e-05
2.68331e-08
1.20488e-05
3.84108e-08
1.20432e-05
1.06442e-08
1.20455e-05
2.56849e-08
1.20481e-05
5.46071e-08
1.20457e-05
5.47622e-08
1.20436e-05
4.61033e-08
1.2046e-05
5.15787e-08
1.20505e-05
6.42168e-08
1.20525e-05
6.75922e-08
1.20532e-05
6.03573e-08
5.64168e-08
1.20552e-05
1.26259e-05
-9.79037e-08
1.26302e-05
-6.48141e-08
1.26434e-05
4.46094e-08
1.26262e-05
-7.51909e-08
1.26276e-05
-5.76667e-08
1.2638e-05
3.58223e-08
1.26277e-05
-1.59691e-08
1.26218e-05
-4.09678e-08
1.26276e-05
2.10135e-08
1.26264e-05
3.96659e-08
1.26206e-05
1.63855e-08
1.26216e-05
2.46794e-08
1.26249e-05
5.1371e-08
1.26238e-05
5.58269e-08
1.26218e-05
4.81029e-08
1.26233e-05
5.00581e-08
1.26275e-05
6.00023e-08
1.26303e-05
6.47815e-08
1.26312e-05
5.94662e-08
5.46618e-08
1.2633e-05
1.32323e-05
-8.32312e-08
1.32341e-05
-6.66257e-08
1.32467e-05
3.19774e-08
1.32322e-05
-6.0645e-08
1.32312e-05
-5.67365e-08
1.32411e-05
2.59755e-08
1.32329e-05
-7.83005e-09
1.32261e-05
-3.41182e-08
1.32309e-05
1.61606e-08
1.32312e-05
3.94209e-08
1.32259e-05
2.16849e-08
1.32257e-05
2.48749e-08
1.3229e-05
4.80287e-08
1.32292e-05
5.56257e-08
1.32276e-05
4.96922e-08
1.32285e-05
4.9209e-08
1.32322e-05
5.63395e-08
1.32355e-05
6.14483e-08
1.32368e-05
5.81432e-08
5.31022e-08
1.32384e-05
1.38674e-05
-7.04487e-08
1.38671e-05
-6.63819e-08
1.38788e-05
2.03503e-08
1.38669e-05
-4.87394e-08
1.38641e-05
-5.39624e-08
1.38729e-05
1.71273e-08
1.38669e-05
-1.81843e-09
1.38596e-05
-2.68383e-08
1.38633e-05
1.25362e-08
1.38646e-05
3.80451e-08
1.38602e-05
2.61451e-08
1.38591e-05
2.59855e-08
1.38621e-05
4.49676e-08
1.38633e-05
5.44139e-08
1.38624e-05
5.06421e-08
1.38628e-05
4.87603e-08
1.38659e-05
5.33177e-08
1.38694e-05
5.79411e-08
1.38712e-05
5.62998e-08
5.16159e-08
1.38727e-05
1.45326e-05
-5.94068e-08
1.45307e-05
-6.45076e-08
1.45411e-05
1.00166e-08
1.45316e-05
-3.92858e-08
1.45275e-05
-4.98649e-08
1.45351e-05
9.58144e-09
1.4531e-05
2.28887e-09
1.45238e-05
-1.962e-08
1.45261e-05
1.02154e-08
1.45282e-05
3.595e-08
1.45248e-05
2.95488e-08
1.45231e-05
2.76443e-08
1.45256e-05
4.24271e-08
1.45276e-05
5.25087e-08
1.45273e-05
5.0857e-08
1.45277e-05
4.84442e-08
1.45301e-05
5.08856e-08
1.45335e-05
5.45477e-08
1.45358e-05
5.40054e-08
5.00552e-08
1.45373e-05
1.52294e-05
-4.99415e-08
1.52263e-05
-6.14118e-08
1.52352e-05
1.1763e-09
1.52279e-05
-3.20125e-08
1.5223e-05
-4.49527e-08
1.5229e-05
3.5196e-09
1.52265e-05
4.80342e-09
1.52198e-05
-1.2862e-08
1.52209e-05
9.10985e-09
1.52233e-05
3.35301e-08
1.5221e-05
3.18456e-08
1.52192e-05
2.94851e-08
1.52211e-05
4.0487e-08
1.52234e-05
5.02287e-08
1.52239e-05
5.03613e-08
1.52243e-05
4.80366e-08
1.52262e-05
4.89136e-08
1.52294e-05
5.14382e-08
1.52319e-05
5.14294e-08
4.83142e-08
1.52337e-05
1.59593e-05
-4.18823e-08
1.59553e-05
-5.74604e-08
1.59626e-05
-6.0797e-09
1.59572e-05
-2.65901e-08
1.59519e-05
-3.96639e-08
1.59564e-05
-1.029e-09
1.59551e-05
6.09983e-09
1.59491e-05
-6.85389e-09
1.59492e-05
9.01574e-09
1.59516e-05
3.11129e-08
1.59503e-05
3.3117e-08
1.59486e-05
3.11996e-08
1.595e-05
3.90967e-08
1.59524e-05
4.78422e-08
1.59535e-05
4.92644e-08
1.59542e-05
4.7389e-08
1.59558e-05
4.72386e-08
1.59586e-05
4.86699e-08
1.59613e-05
4.87585e-08
4.63656e-08
1.59632e-05
1.67238e-05
-3.50589e-08
1.67193e-05
-5.29684e-08
1.6725e-05
-1.17566e-08
1.6721e-05
-2.26602e-08
1.67157e-05
-3.43604e-08
1.67188e-05
-4.14016e-09
1.67184e-05
6.55043e-09
1.67133e-05
-1.76653e-09
1.67127e-05
9.66847e-09
1.67148e-05
2.89292e-08
1.67144e-05
3.35305e-08
1.67131e-05
3.25674e-08
1.6714e-05
3.81269e-08
1.67163e-05
4.5534e-08
1.67179e-05
4.77212e-08
1.67188e-05
4.64327e-08
1.67204e-05
4.57046e-08
1.67228e-05
4.62188e-08
1.67254e-05
4.61362e-08
4.42527e-08
1.67276e-05
1.75246e-05
-2.93062e-08
1.75198e-05
-4.82018e-08
1.7524e-05
-1.59281e-08
1.75212e-05
-1.98706e-08
1.75162e-05
-2.93058e-08
1.7518e-05
-5.98559e-09
1.75181e-05
6.49092e-09
1.7514e-05
2.34537e-09
1.75128e-05
1.0791e-08
1.75147e-05
2.71057e-08
1.75149e-05
3.32907e-08
1.7514e-05
3.34654e-08
1.75147e-05
3.74157e-08
1.75168e-05
4.34012e-08
1.75187e-05
4.58934e-08
1.75199e-05
4.51663e-08
1.75215e-05
4.41897e-08
1.75237e-05
4.40155e-08
1.75262e-05
4.36426e-08
4.20534e-08
1.75284e-05
1.83635e-05
-2.44696e-08
1.83587e-05
-4.33729e-08
1.83615e-05
-1.87245e-08
1.83595e-05
-1.78961e-08
1.83549e-05
-2.46796e-08
1.83557e-05
-6.77591e-09
1.8356e-05
6.19169e-09
1.83528e-05
5.51415e-09
1.83515e-05
1.21277e-08
1.83529e-05
2.56765e-08
1.83536e-05
3.26036e-08
1.83532e-05
3.38597e-08
1.83538e-05
3.68014e-08
1.83557e-05
4.14692e-08
1.83577e-05
4.39197e-08
1.83592e-05
4.36336e-08
1.83608e-05
4.26161e-08
1.83628e-05
4.19776e-08
1.83652e-05
4.13016e-08
3.98428e-08
1.83674e-05
1.92423e-05
-2.04084e-08
1.92376e-05
-3.86422e-08
1.92392e-05
-2.0317e-08
1.92377e-05
-1.6454e-08
1.92336e-05
-2.05746e-08