/*--------------------------------*- C++ -*----------------------------------*\
| =========                 |                                                 |
| \\      /  F ield         | OpenFOAM: The Open Source CFD Toolbox           |
|  \\    /   O peration     | Version:  3.0.1                                 |
|   \\  /    A nd           | Web:      www.OpenFOAM.org                      |
|    \\/     M anipulation  |                                                 |
\*---------------------------------------------------------------------------*/
FoamFile
{
    version     2.0;
    format      ascii;
    class       volVectorField;
    location    "0.1";
    object      U;
}
// * * * * * * * * * * * * * * * * * * * * * * * * * * * * * * * * * * * * * //

dimensions      [0 1 -1 0 0 0 0];

internalField   nonuniform List<vector> 
9600
(
(0.94796 -0.0127246 0)
(1.10023 0.0183245 0)
(0.888346 -0.00738351 0)
(1.13648 -0.00817182 0)
(0.888401 0.00798668 0)
(1.10566 0.00384291 0)
(0.89678 -0.00719577 0)
(1.11643 -0.00958374 0)
(0.894509 0.00337147 0)
(1.107 0.0057884 0)
(0.890469 0.00443087 0)
(1.09909 -0.00639341 0)
(0.886534 -0.00598701 0)
(1.11778 -0.00669878 0)
(0.868473 -0.00450951 0)
(1.09771 0.00633565 0)
(0.898576 0.0093441 0)
(1.09653 0.00163647 0)
(0.862052 0.00717541 0)
(1.09211 -0.00924464 0)
(0.952063 -0.013079 0)
(1.09526 0.018584 0)
(0.908552 -0.00779059 0)
(1.12656 -0.00803581 0)
(0.9018 0.00807666 0)
(1.0912 0.00395796 0)
(0.917696 -0.00753667 0)
(1.09887 -0.00936574 0)
(0.91237 0.00330831 0)
(1.08545 0.0060428 0)
(0.92017 0.00430026 0)
(1.06902 -0.00609384 0)
(0.922172 -0.00660073 0)
(1.07833 -0.00616951 0)
(0.917756 -0.00416215 0)
(1.04465 0.00568325 0)
(0.96266 0.0093877 0)
(1.02344 0.00256045 0)
(0.961045 0.00849528 0)
(0.982843 -0.0106098 0)
(0.958674 -0.0134023 0)
(1.0847 0.0189352 0)
(0.934801 -0.00805492 0)
(1.10521 -0.00784353 0)
(0.927928 0.0082457 0)
(1.06993 0.00396446 0)
(0.947244 -0.00773783 0)
(1.07009 -0.00918333 0)
(0.942467 0.00334843 0)
(1.05475 0.0060841 0)
(0.958321 0.0043863 0)
(1.0365 -0.00604456 0)
(0.962122 -0.00674873 0)
(1.03694 -0.00607685 0)
(0.964699 -0.00353209 0)
(1.0031 0.00477783 0)
(0.993063 0.00977351 0)
(1.00124 0.00256365 0)
(0.985616 0.00850462 0)
(0.985147 -0.0073412 0)
(0.966739 -0.0136679 0)
(1.0694 0.0191141 0)
(0.960754 -0.00817891 0)
(1.07628 -0.00771792 0)
(0.957976 0.00842582 0)
(1.0494 0.00391407 0)
(0.974457 -0.00776169 0)
(1.04006 -0.00908995 0)
(0.97083 0.00346797 0)
(1.03032 0.00594673 0)
(0.986959 0.0045495 0)
(1.01656 -0.00603827 0)
(0.98601 -0.00667832 0)
(1.01314 -0.00617042 0)
(0.987032 -0.00290315 0)
(0.990835 0.00432162 0)
(0.997806 0.00970327 0)
(1.00117 0.00261818 0)
(0.992384 0.00911438 0)
(0.991363 -0.00594523 0)
(0.975014 -0.0138707 0)
(1.05154 0.0190918 0)
(0.981981 -0.00816304 0)
(1.04695 -0.00767881 0)
(0.982463 0.00853952 0)
(1.03397 0.00387301 0)
(0.992813 -0.00764616 0)
(1.01687 -0.00904598 0)
(0.988979 0.00352735 0)
(1.01706 0.00578033 0)
(1.00226 0.00467695 0)
(1.00848 -0.00594785 0)
(0.995404 -0.0065463 0)
(1.00278 -0.0062088 0)
(0.993641 -0.00250558 0)
(0.990954 0.00412051 0)
(0.998553 0.00946627 0)
(1.00162 0.00269796 0)
(0.997312 0.00935634 0)
(0.994495 -0.00475566 0)
(0.982359 -0.0140019 0)
(1.03384 0.0189424 0)
(0.996495 -0.00803912 0)
(1.02331 -0.00769378 0)
(0.99659 0.00854027 0)
(1.0241 0.00386435 0)
(1.00216 -0.00743435 0)
(1.00276 -0.0090073 0)
(0.996808 0.00346778 0)
(1.01115 0.00562252 0)
(1.00821 0.0047548 0)
(1.00589 -0.00577655 0)
(0.997985 -0.00635381 0)
(0.998103 -0.00620027 0)
(0.994181 -0.00230513 0)
(0.992335 0.00396857 0)
(0.999425 0.0092523 0)
(1.00101 0.00272341 0)
(0.999349 0.0093212 0)
(0.996833 -0.00333486 0)
(0.988075 -0.0140569 0)
(1.01865 0.0187284 0)
(1.00478 -0.00786136 0)
(1.00779 -0.00771053 0)
(1.00108 0.00843319 0)
(1.01801 0.00387712 0)
(1.00566 -0.00716988 0)
(0.995718 -0.00895031 0)
(0.998108 0.0033215 0)
(1.00779 0.00545901 0)
(1.00916 0.00479558 0)
(1.00482 -0.0055695 0)
(0.998359 -0.00610786 0)
(0.995661 -0.00616348 0)
(0.992866 -0.00219218 0)
(0.992378 0.00379479 0)
(0.999401 0.00903863 0)
(0.999966 0.00279296 0)
(0.998966 0.00916471 0)
(0.997821 -0.00186578 0)
(0.992012 -0.014041 0)
(1.00723 0.0184805 0)
(1.00865 -0.00767344 0)
(0.999394 -0.00769331 0)
(0.999737 0.00825536 0)
(1.01396 0.00387691 0)
(1.0064 -0.0068927 0)
(0.992824 -0.00886354 0)
(0.996555 0.00314804 0)
(1.00485 0.0052826 0)
(1.00787 0.00479703 0)
(1.00402 -0.00536228 0)
(0.998195 -0.00583749 0)
(0.994442 -0.00608096 0)
(0.991306 -0.00211399 0)
(0.991308 0.00359548 0)
(0.998308 0.00880417 0)
(0.998648 0.00295381 0)
(0.997562 0.00892769 0)
(0.997546 -0.000500286 0)
(0.994427 -0.0139674 0)
(0.999671 0.0182144 0)
(1.01003 -0.00749694 0)
(0.995661 -0.00763199 0)
(0.996434 0.00804827 0)
(1.0111 0.00383369 0)
(1.0062 -0.00662758 0)
(0.991935 -0.00874225 0)
(0.994436 0.00298947 0)
(1.00222 0.00509399 0)
(1.00597 0.00475383 0)
(1.0033 -0.0051724 0)
(0.997967 -0.00556471 0)
(0.99397 -0.0059471 0)
(0.990142 -0.00203701 0)
(0.989894 0.00341746 0)
(0.996734 0.00852979 0)
(0.997327 0.00317492 0)
(0.996108 0.00861936 0)
(0.996724 0.000708962 0)
(0.995762 -0.0138509 0)
(0.995272 0.0179372 0)
(1.01028 -0.00733472 0)
(0.994341 -0.00753305 0)
(0.993511 0.00783748 0)
(1.00916 0.00374836 0)
(1.00581 -0.00638 0)
(0.991859 -0.00858862 0)
(0.992794 0.00285941 0)
(1.00026 0.00489524 0)
(1.00431 0.0046706 0)
(1.00271 -0.00500069 0)
(0.997789 -0.00530312 0)
(0.993888 -0.00576885 0)
(0.989519 -0.00194977 0)
(0.988759 0.00328929 0)
(0.995298 0.00820492 0)
(0.996289 0.0034244 0)
(0.995048 0.00827014 0)
(0.99595 0.00181223 0)
(0.996443 -0.0137046 0)
(0.993021 0.0176487 0)
(1.01013 -0.00717972 0)
(0.994035 -0.00741009 0)
(0.991702 0.00763317 0)
(1.00796 0.00363071 0)
(1.00547 -0.00614638 0)
(0.992033 -0.00840977 0)
(0.991874 0.00275269 0)
(0.999079 0.0046903 0)
(1.00317 0.00455775 0)
(1.00227 -0.00483907 0)
(0.997672 -0.0050581 0)
(0.993955 -0.00555469 0)
(0.989335 -0.00185914 0)
(0.988143 0.00321594 0)
(0.994311 0.0078392 0)
(0.995631 0.00368725 0)
(0.994447 0.0079177 0)
(0.995467 0.00281471 0)
(0.996782 -0.0135375 0)
(0.992016 0.0173462 0)
(1.00987 -0.00702313 0)
(0.994086 -0.00727627 0)
(0.990849 0.00743615 0)
(1.00727 0.00349149 0)
(1.0052 -0.00592017 0)
(0.992243 -0.00821371 0)
(0.991528 0.00265938 0)
(0.998504 0.00448237 0)
(1.00248 0.00442446 0)
(1.00194 -0.0046769 0)
(0.997604 -0.00483064 0)
(0.994056 -0.00530977 0)
(0.989417 -0.00177723 0)
(0.987984 0.00319007 0)
(0.993776 0.00744699 0)
(0.995289 0.00395605 0)
(0.994177 0.00758847 0)
(0.995259 0.00367402 0)
(0.996967 -0.0133551 0)
(0.991634 0.0170276 0)
(1.00959 -0.00685832 0)
(0.994246 -0.00714092 0)
(0.990562 0.00724506 0)
(1.00686 0.00333836 0)
(1.00498 -0.00569578 0)
(0.992436 -0.00800663 0)
(0.99152 0.00257128 0)
(0.998284 0.00427378 0)
(1.00207 0.00427569 0)
(1.00167 -0.00450413 0)
(0.997567 -0.00462474 0)
(0.994155 -0.00503208 0)
(0.989627 -0.001711 0)
(0.988108 0.00320119 0)
(0.99355 0.00704432 0)
(0.995145 0.00421478 0)
(0.994085 0.0073133 0)
(0.995215 0.00438157 0)
(0.997091 -0.0131605 0)
(0.991525 0.0166912 0)
(1.00931 -0.0066814 0)
(0.994441 -0.00700944 0)
(0.990541 0.00705933 0)
(1.00658 0.00317541 0)
(1.00478 -0.00547045 0)
(0.992614 -0.00779172 0)
(0.991669 0.00248298 0)
(0.99823 0.00406745 0)
(1.00178 0.00411413 0)
(1.00144 -0.00431578 0)
(0.997547 -0.00444038 0)
(0.994248 -0.0047242 0)
(0.989888 -0.00166618 0)
(0.988367 0.00323489 0)
(0.99349 0.0066517 0)
(0.995105 0.00444138 0)
(0.99407 0.00710683 0)
(0.995241 0.00493014 0)
(0.997195 -0.0129546 0)
(0.991521 0.0163365 0)
(1.00902 -0.00649045 0)
(0.99465 -0.00688447 0)
(0.990622 0.00687894 0)
(1.00634 0.00300486 0)
(1.00459 -0.00524392 0)
(0.992786 -0.00756977 0)
(0.99188 0.00239156 0)
(0.998239 0.00386541 0)
(1.00154 0.00394184 0)
(1.00121 -0.0041087 0)
(0.997534 -0.00427757 0)
(0.994339 -0.00439215 0)
(0.990165 -0.00163938 0)
(0.988675 0.00327908 0)
(0.993506 0.00628251 0)
(0.995117 0.00461996 0)
(0.994088 0.00696387 0)
(0.995284 0.00534842 0)
(0.997294 -0.0127378 0)
(0.991557 0.0159628 0)
(1.00873 -0.00628454 0)
(0.994868 -0.00676748 0)
(0.99074 0.00670463 0)
(1.00613 0.00282684 0)
(1.0044 -0.00501517 0)
(0.992957 -0.00734216 0)
(0.992112 0.00229633 0)
(0.998268 0.00366924 0)
(1.00132 0.00375722 0)
(1.00099 -0.00388061 0)
(0.997528 -0.00413638 0)
(0.99443 -0.00404041 0)
(0.990449 -0.00162054 0)
(0.988996 0.00332584 0)
(0.993554 0.00595767 0)
(0.995158 0.00474025 0)
(0.994125 0.00688306 0)
(0.995327 0.00567205 0)
(0.997392 -0.01251 0)
(0.991609 0.0155698 0)
(1.00843 -0.00606321 0)
(0.995092 -0.00665934 0)
(0.990873 0.00653719 0)
(1.00591 0.00264143 0)
(1.00422 -0.00478433 0)
(0.993129 -0.0071084 0)
(0.992353 0.00219583 0)
(0.9983 0.00348177 0)
(1.0011 0.00355821 0)
(1.00077 -0.0036306 0)
(0.997528 -0.00401518 0)
(0.99452 -0.00367524 0)
(0.990737 -0.0015943 0)
(0.98932 0.003361 0)
(0.993615 0.0057007 0)
(0.995218 0.00480359 0)
(0.994177 0.00684774 0)
(0.995366 0.00593224 0)
(0.99749 -0.0122711 0)
(0.99167 0.0151573 0)
(1.00812 -0.00582627 0)
(0.995321 -0.00656059 0)
(0.991014 0.00637686 0)
(1.00568 0.00245007 0)
(1.00403 -0.00455481 0)
(0.993302 -0.0068651 0)
(0.992598 0.00208799 0)
(0.998332 0.00330657 0)
(1.00089 0.00334366 0)
(1.00055 -0.00335831 0)
(0.997533 -0.00391053 0)
(0.994611 -0.00330478 0)
(0.991026 -0.00155824 0)
(0.989648 0.00336044 0)
(0.993683 0.00551229 0)
(0.995293 0.00481375 0)
(0.994245 0.00681899 0)
(0.995401 0.006156 0)
(0.99759 -0.0120209 0)
(0.991737 0.0147253 0)
(1.0078 -0.00557378 0)
(0.995552 -0.00647134 0)
(0.991161 0.00622349 0)
(1.00546 0.00225412 0)
(1.00384 -0.00432584 0)
(0.993475 -0.00661519 0)
(0.992846 0.00197111 0)
(0.998362 0.00314438 0)
(1.00068 0.0031145 0)
(1.00032 -0.0030708 0)
(0.997543 -0.00381142 0)
(0.994703 -0.00294076 0)
(0.991313 -0.00150386 0)
(0.98998 0.00331199 0)
(0.993757 0.00537804 0)
(0.995378 0.00478886 0)
(0.994332 0.0067696 0)
(0.995434 0.00635254 0)
(0.997692 -0.0117592 0)
(0.991812 0.0142735 0)
(1.00748 -0.0053057 0)
(0.995785 -0.00639221 0)
(0.991314 0.00607832 0)
(1.00523 0.00205166 0)
(1.00365 -0.0040988 0)
(0.993648 -0.00635725 0)
(0.993098 0.00184367 0)
(0.99839 0.00299652 0)
(1.00048 0.00287332 0)
(1.0001 -0.00277552 0)
(0.997558 -0.00371071 0)
(0.994798 -0.00259199 0)
(0.991595 -0.001408 0)
(0.990318 0.00322712 0)
(0.993838 0.00528469 0)
(0.99547 0.00475649 0)
(0.994438 0.00669044 0)
(0.995468 0.00651699 0)
(0.997794 -0.0114858 0)
(0.991892 0.0138022 0)
(1.00716 -0.00502233 0)
(0.99602 -0.00632305 0)
(0.991472 0.0059403 0)
(1.005 0.00184644 0)
(1.00347 -0.00387967 0)
(0.993819 -0.00608533 0)
(0.993352 0.00170434 0)
(0.998415 0.00286777 0)
(1.00029 0.00261855 0)
(0.99987 -0.00247002 0)
(0.997576 -0.00360778 0)
(0.994898 -0.0022736 0)
(0.99187 -0.00125994 0)
(0.990662 0.00311294 0)
(0.993926 0.00521381 0)
(0.995564 0.00473777 0)
(0.994562 0.00657498 0)
(0.995502 0.00664118 0)
(0.997898 -0.0112008 0)
(0.99198 0.0133117 0)
(1.00683 -0.00472447 0)
(0.996257 -0.00626291 0)
(0.991634 0.0058076 0)
(1.00477 0.0016426 0)
(1.00328 -0.00366889 0)
(0.993987 -0.00580099 0)
(0.993609 0.00155271 0)
(0.998439 0.00275587 0)
(1.0001 0.00235691 0)
(0.999646 -0.0021635 0)
(0.997595 -0.00349066 0)
(0.995007 -0.00199829 0)
(0.992137 -0.00106051 0)
(0.99101 0.00298072 0)
(0.994026 0.005145 0)
(0.995659 0.00474887 0)
(0.9947 0.00643676 0)
(0.995541 0.00672826 0)
(0.998002 -0.0109041 0)
(0.992075 0.0128022 0)
(1.00649 -0.00441219 0)
(0.996496 -0.0062127 0)
(0.9918 0.00568234 0)
(1.00455 0.00143767 0)
(1.00309 -0.0034663 0)
(0.994152 -0.00550275 0)
(0.993868 0.00138489 0)
(0.99846 0.00266073 0)
(0.999923 0.00209677 0)
(0.999426 -0.00187285 0)
(0.997614 -0.00334095 0)
(0.995126 -0.00176452 0)
(0.992395 -0.000828895 0)
(0.991357 0.00285227 0)
(0.99414 0.00505471 0)
(0.995753 0.00478481 0)
(0.994849 0.00629621 0)
(0.995586 0.00677699 0)
(0.998108 -0.0105956 0)
(0.992178 0.0122742 0)
(1.00615 -0.00408671 0)
(0.996737 -0.00617067 0)
(0.991967 0.00556073 0)
(1.00432 0.0012385 0)
(1.00292 -0.0032773 0)
(0.994312 -0.00519088 0)
(0.994128 0.00120437 0)
(0.99848 0.00258005 0)
(0.999749 0.00184238 0)
(0.999212 -0.00159826 0)
(0.99763 -0.00315765 0)
(0.995255 -0.00157445 0)
(0.992647 -0.000578843 0)
(0.991701 0.00274066 0)
(0.994271 0.00493253 0)
(0.995848 0.00482204 0)
(0.995004 0.0061667 0)
(0.995637 0.00677953 0)
(0.998214 -0.0102757 0)
(0.99229 0.0117289 0)
(1.0058 -0.00374954 0)
(0.99698 -0.00613532 0)
(0.992138 0.00544115 0)
(1.00409 0.00104801 0)
(1.00274 -0.00310507 0)
(0.994466 -0.00486262 0)
(0.99439 0.00101265 0)
(0.998499 0.00250612 0)
(0.999582 0.00160076 0)
(0.999005 -0.00135024 0)
(0.997641 -0.00294268 0)
(0.995394 -0.00142303 0)
(0.992893 -0.000314536 0)
(0.992037 0.00265802 0)
(0.994416 0.00479138 0)
(0.995947 0.00484195 0)
(0.995162 0.0060581 0)
(0.995692 0.00675152 0)
(0.99832 -0.00994448 0)
(0.992412 0.0111666 0)
(1.00545 -0.00340095 0)
(0.997224 -0.00610716 0)
(0.992311 0.00532381 0)
(1.00385 0.000868954 0)
(1.00257 -0.00295556 0)
(0.994612 -0.00451384 0)
(0.994651 0.000810591 0)
(0.998518 0.00243627 0)
(0.99942 0.00137606 0)
(0.99881 -0.00114252 0)
(0.997648 -0.00268567 0)
(0.995544 -0.00129262 0)
(0.993139 -5.75268e-05 0)
(0.992361 0.00261679 0)
(0.994574 0.0046445 0)
(0.996054 0.00483581 0)
(0.995324 0.00595546 0)
(0.99575 0.00670409 0)
(0.998426 -0.00960229 0)
(0.992544 0.0105891 0)
(1.0051 -0.00304376 0)
(0.997468 -0.00608254 0)
(0.992488 0.00520429 0)
(1.00362 0.000703086 0)
(1.00242 -0.002828 0)
(0.994751 -0.0041535 0)
(0.994908 0.000602705 0)
(0.998539 0.00236394 0)
(0.999263 0.00118855 0)
(0.998628 -0.000973686 0)
(0.997649 -0.00239669 0)
(0.9957 -0.00117017 0)
(0.993386 0.00016371 0)
(0.992674 0.00261312 0)
(0.994739 0.00449717 0)
(0.996169 0.00480053 0)
(0.995491 0.00584357 0)
(0.995813 0.00663754 0)
(0.998531 -0.00924957 0)
(0.992686 0.00999753 0)
(1.00474 -0.00267946 0)
(0.997712 -0.00606038 0)
(0.992669 0.00508044 0)
(1.00338 0.000554439 0)
(1.00227 -0.00272344 0)
(0.994882 -0.00377952 0)
(0.995162 0.000394155 0)
(0.998563 0.00228417 0)
(0.99911 0.00103802 0)
(0.99846 -0.00084409 0)
(0.997648 -0.00209747 0)
(0.995858 -0.00104522 0)
(0.993637 0.000347626 0)
(0.992975 0.00263134 0)
(0.994908 0.00435915 0)
(0.99629 0.00473555 0)
(0.995663 0.00572579 0)
(0.995884 0.00655042 0)
(0.998636 -0.00888684 0)
(0.99284 0.0093935 0)
(1.00439 -0.00230971 0)
(0.997955 -0.00603946 0)
(0.992854 0.00495023 0)
(1.00314 0.000431052 0)
(1.00214 -0.00264629 0)
(0.995006 -0.00339202 0)
(0.995408 0.000195555 0)
(0.998592 0.00218466 0)
(0.998959 0.000929719 0)
(0.998307 -0.000754837 0)
(0.997646 -0.00179169 0)
(0.996015 -0.00090613 0)
(0.993893 0.000494415 0)
(0.993268 0.00265668 0)
(0.995076 0.00424774 0)
(0.996418 0.0046472 0)
(0.995842 0.00559662 0)
(0.995964 0.00643691 0)
(0.99874 -0.00851482 0)
(0.993007 0.00877924 0)
(1.00403 -0.00193809 0)
(0.998195 -0.00601498 0)
(0.993044 0.00480846 0)
(1.0029 0.000333216 0)
(1.00201 -0.00259751 0)
(0.995125 -0.00299985 0)
(0.995644 1.30902e-05 0)
(0.998628 0.00205932 0)
(0.998812 0.000873486 0)
(0.998167 -0.000690528 0)
(0.997647 -0.0014973 0)
(0.996167 -0.000738018 0)
(0.994153 0.000612387 0)
(0.993558 0.00267155 0)
(0.995241 0.00416823 0)
(0.996547 0.0045564 0)
(0.996026 0.00545404 0)
(0.996056 0.00631043 0)
(0.998841 -0.00813442 0)
(0.993185 0.00815712 0)
(1.00367 -0.00156719 0)
(0.99843 -0.00598477 0)
(0.99324 0.00465267 0)
(1.00265 0.000265437 0)
(1.0019 -0.00257705 0)
(0.995239 -0.00260982 0)
(0.995866 -0.000140644 0)
(0.998673 0.00190338 0)
(0.998668 0.000858283 0)
(0.99804 -0.000636374 0)
(0.997655 -0.00123242 0)
(0.996314 -0.000539969 0)
(0.99441 0.000717929 0)
(0.993846 0.00266418 0)
(0.995406 0.0041099 0)
(0.996673 0.00448245 0)
(0.996214 0.0052951 0)
(0.996159 0.00617276 0)
(0.998941 -0.00774646 0)
(0.993376 0.00752923 0)
(1.00331 -0.00119943 0)
(0.998661 -0.00594605 0)
(0.993444 0.00447961 0)
(1.00239 0.000229629 0)
(1.00181 -0.00258134 0)
(0.995351 -0.0022271 0)
(0.996073 -0.000267515 0)
(0.998727 0.00171255 0)
(0.998531 0.000880259 0)
(0.997921 -0.00058119 0)
(0.997673 -0.00100558 0)
(0.996457 -0.000325803 0)
(0.994662 0.000823275 0)
(0.994135 0.00263188 0)
(0.995574 0.00404899 0)
(0.996792 0.00443071 0)
(0.996401 0.00512187 0)
(0.996276 0.00600998 0)
(0.999039 -0.00735229 0)
(0.99358 0.00689923 0)
(1.00295 -0.000840199 0)
(0.998884 -0.00589314 0)
(0.993655 0.00428703 0)
(1.00213 0.000224358 0)
(1.00172 -0.00260781 0)
(0.995462 -0.00185921 0)
(0.99626 -0.000359239 0)
(0.998791 0.00149127 0)
(0.998402 0.000927319 0)
(0.997807 -0.000510592 0)
(0.997703 -0.000827845 0)
(0.996598 -0.000102657 0)
(0.994903 0.000946323 0)
(0.994422 0.00257855 0)
(0.99575 0.00396377 0)
(0.996905 0.00439844 0)
(0.996582 0.00495879 0)
(0.996406 0.00582 0)
(0.999134 -0.00695317 0)
(0.993798 0.00627012 0)
(1.0026 -0.000492252 0)
(0.999098 -0.00582433 0)
(0.993875 0.00406928 0)
(1.00186 0.000253605 0)
(1.00165 -0.00264892 0)
(0.995575 -0.00152146 0)
(0.996425 -0.000402714 0)
(0.998867 0.00124533 0)
(0.998287 0.000981967 0)
(0.997694 -0.000412553 0)
(0.997743 -0.000691188 0)
(0.996744 0.000117424 0)
(0.995129 0.00109305 0)
(0.9947 0.00251842 0)
(0.995939 0.00384776 0)
(0.997016 0.00437105 0)
(0.996749 0.00482995 0)
(0.996544 0.00561228 0)
(0.999225 -0.00655052 0)
(0.994028 0.00564499 0)
(1.00225 -0.000158434 0)
(0.999301 -0.005738 0)
(0.994106 0.00382526 0)
(1.00158 0.00031593 0)
(1.00159 -0.00270043 0)
(0.995693 -0.00121218 0)
(0.996566 -0.000396761 0)
(0.99895 0.000979647 0)
(0.99819 0.00103403 0)
(0.99758 -0.000274355 0)
(0.997793 -0.000583363 0)
(0.996899 0.000311641 0)
(0.99534 0.00126488 0)
(0.994963 0.00247329 0)
(0.996141 0.00370383 0)
(0.997134 0.00432777 0)
(0.996899 0.00474502 0)
(0.996686 0.00540275 0)
(0.999312 -0.00614617 0)
(0.994271 0.00502868 0)
(1.00191 0.000153705 0)
(0.999491 -0.00562529 0)
(0.994347 0.00355442 0)
(1.0013 0.00040678 0)
(1.00154 -0.00275404 0)
(0.99582 -0.000944636 0)
(0.99668 -0.000339997 0)
(0.99904 0.000705853 0)
(0.998117 0.001068 0)
(0.997464 -9.58893e-05 0)
(0.997845 -0.000493383 0)
(0.997069 0.000458126 0)
(0.99554 0.00144978 0)
(0.995202 0.0024568 0)
(0.99635 0.00353604 0)
(0.997268 0.00424697 0)
(0.997036 0.00469276 0)
(0.996818 0.0052152 0)
(0.999396 -0.00574184 0)
(0.994526 0.00442476 0)
(1.00157 0.000442094 0)
(0.999666 -0.00548419 0)
(0.9946 0.00325509 0)
(1.00102 0.000521969 0)
(1.00149 -0.00280243 0)
(0.99596 -0.000729918 0)
(0.996768 -0.000237947 0)
(0.999131 0.000442626 0)
(0.998073 0.00106741 0)
(0.997347 0.000111992 0)
(0.997893 -0.000404276 0)
(0.997255 0.000551753 0)
(0.995736 0.00162568 0)
(0.995412 0.00247694 0)
(0.996557 0.00336106 0)
(0.997426 0.00411865 0)
(0.997169 0.0046482 0)
(0.996934 0.00507261 0)
(0.999474 -0.00533958 0)
(0.994792 0.00383767 0)
(1.00125 0.000702427 0)
(0.999823 -0.00531347 0)
(0.994866 0.00293067 0)
(1.00074 0.000650945 0)
(1.00144 -0.00283452 0)
(0.996114 -0.000566099 0)
(0.99683 -9.39793e-05 0)
(0.999218 0.000202647 0)
(0.998062 0.00103093 0)
(0.997232 0.000338692 0)
(0.997931 -0.000299937 0)
(0.997457 0.000593547 0)
(0.995938 0.0017769 0)
(0.995592 0.00253912 0)
(0.996752 0.00320563 0)
(0.997609 0.00394425 0)
(0.997312 0.00458176 0)
(0.997031 0.00498013 0)
(0.999548 -0.00494144 0)
(0.995068 0.00327186 0)
(1.00094 0.000930078 0)
(0.99996 -0.00511005 0)
(0.995143 0.0025824 0)
(1.00046 0.000790859 0)
(1.00139 -0.00284198 0)
(0.996287 -0.000462204 0)
(0.996871 8.7173e-05 0)
(0.999295 -9.65205e-06 0)
(0.998087 0.000952591 0)
(0.997125 0.000577202 0)
(0.997949 -0.000169248 0)
(0.997671 0.000591717 0)
(0.996155 0.00188412 0)
(0.995746 0.00263233 0)
(0.996919 0.00308896 0)
(0.99781 0.00373519 0)
(0.997481 0.00446924 0)
(0.997117 0.00492363 0)
(0.999617 -0.00454976 0)
(0.995354 0.00273211 0)
(1.00065 0.00112125 0)
(1.00008 -0.00487345 0)
(0.995432 0.00221651 0)
(1.00018 0.000937635 0)
(1.00134 -0.00281905 0)
(0.99648 -0.000416145 0)
(0.996893 0.000283235 0)
(0.999355 -0.000174081 0)
(0.998149 0.000826272 0)
(0.997033 0.000810227 0)
(0.997943 2.70463e-06 0)
(0.997888 0.000571082 0)
(0.996397 0.00193748 0)
(0.995885 0.00273756 0)
(0.997049 0.00302313 0)
(0.998014 0.00351685 0)
(0.997687 0.00429872 0)
(0.997209 0.00486873 0)
(0.999679 -0.00416664 0)
(0.995646 0.00222236 0)
(1.00038 0.00127299 0)
(1.00017 -0.00460499 0)
(0.995731 0.00183982 0)
(0.999907 0.00107534 0)
(1.00127 -0.00275435 0)
(0.996693 -0.000422239 0)
(0.996903 0.000480218 0)
(0.99939 -0.000274074 0)
(0.998247 0.000661147 0)
(0.996968 0.00101359 0)
(0.99791 0.000213396 0)
(0.998098 0.000549402 0)
(0.996665 0.00193165 0)
(0.996021 0.00283208 0)
(0.997138 0.00300999 0)
(0.998204 0.00331983 0)
(0.997928 0.00407672 0)
(0.997329 0.0047745 0)
(0.999736 -0.00379447 0)
(0.995944 0.00174695 0)
(1.00012 0.00138382 0)
(1.00024 -0.00430669 0)
(0.996039 0.00146026 0)
(0.999651 0.00119214 0)
(1.00119 -0.00264602 0)
(0.996924 -0.000471063 0)
(0.996909 0.000666867 0)
(0.999396 -0.000309078 0)
(0.998373 0.000481713 0)
(0.996938 0.00116843 0)
(0.997852 0.000452688 0)
(0.998289 0.000542153 0)
(0.99696 0.00186861 0)
(0.996169 0.00289486 0)
(0.997191 0.00304066 0)
(0.998361 0.00316592 0)
(0.998193 0.00382601 0)
(0.997502 0.00461149 0)
(0.999787 -0.00343548 0)
(0.996244 0.00130965 0)
(0.999892 0.00145164 0)
(1.00029 -0.00398248 0)
(0.996352 0.0010853 0)
(0.999412 0.00128481 0)
(1.0011 -0.00249523 0)
(0.997171 -0.000552261 0)
(0.996919 0.000826431 0)
(0.999371 -0.000276108 0)
(0.998519 0.000302451 0)
(0.99695 0.0012644 0)
(0.997776 0.000713046 0)
(0.998446 0.000569939 0)
(0.997274 0.00176372 0)
(0.996343 0.00291 0)
(0.997219 0.00309663 0)
(0.998473 0.00306398 0)
(0.998458 0.00358056 0)
(0.997737 0.00437652 0)
(0.999833 -0.0030917 0)
(0.996545 0.000913392 0)
(0.999685 0.00147673 0)
(1.00031 -0.00363948 0)
(0.996667 0.000724821 0)
(0.999196 0.00134787 0)
(1.00098 -0.00230206 0)
(0.997429 -0.000653382 0)
(0.996941 0.000946211 0)
(0.999314 -0.00018504 0)
(0.998675 0.00013864 0)
(0.997011 0.0012974 0)
(0.997693 0.000971033 0)
(0.998562 0.000639098 0)
(0.997597 0.00163763 0)
(0.996552 0.00286852 0)
(0.997236 0.00315558 0)
(0.998536 0.00301184 0)
(0.998698 0.00337156 0)
(0.998024 0.00409391 0)
(0.999872 -0.00276515 0)
(0.996843 0.000560607 0)
(0.999505 0.00146174 0)
(1.00031 -0.00328302 0)
(0.996981 0.000389367 0)
(0.999006 0.00137194 0)
(1.00085 -0.00207099 0)
(0.997692 -0.00076231 0)
(0.996983 0.00101662 0)
(0.99923 -5.6857e-05 0)
(0.998827 4.98769e-06 0)
(0.997119 0.00127076 0)
(0.997614 0.00120727 0)
(0.998631 0.000753159 0)
(0.997912 0.00151486 0)
(0.996802 0.00277072 0)
(0.997259 0.00319675 0)
(0.998556 0.00299897 0)
(0.998896 0.00321167 0)
(0.998335 0.00380522 0)
(0.999905 -0.00245757 0)
(0.997137 0.000252965 0)
(0.999353 0.00140887 0)
(1.00028 -0.00292142 0)
(0.997288 8.79857e-05 0)
(0.998848 0.00135545 0)
(1.0007 -0.00181363 0)
(0.997951 -0.000862235 0)
(0.99705 0.00103597 0)
(0.999124 0.000101226 0)
(0.998967 -8.8412e-05 0)
(0.997275 0.00119295 0)
(0.997554 0.00140365 0)
(0.998655 0.00090637 0)
(0.998204 0.00141597 0)
(0.997088 0.00262565 0)
(0.997305 0.00320325 0)
(0.998545 0.00301058 0)
(0.999041 0.00309625 0)
(0.998636 0.0035517 0)
(0.999933 -0.00217022 0)
(0.997422 -9.58661e-06 0)
(0.999229 0.00132225 0)
(1.00024 -0.00256291 0)
(0.997585 -0.000175219 0)
(0.998722 0.00129973 0)
(1.00053 -0.00154083 0)
(0.998199 -0.000938479 0)
(0.997145 0.00100523 0)
(0.999003 0.000279341 0)
(0.999082 -0.000127936 0)
(0.997469 0.0010808 0)
(0.997526 0.00154487 0)
(0.99864 0.00108194 0)
(0.998457 0.00135462 0)
(0.997401 0.00245052 0)
(0.997388 0.00316364 0)
(0.998514 0.00303192 0)
(0.999137 0.00301349 0)
(0.998897 0.003355 0)
(0.999956 -0.00190439 0)
(0.997696 -0.000227164 0)
(0.999134 0.001208 0)
(1.00019 -0.0022153 0)
(0.997866 -0.000395791 0)
(0.998632 0.00120793 0)
(1.00036 -0.00126357 0)
(0.99843 -0.00098512 0)
(0.997271 0.000931945 0)
(0.99888 0.000451897 0)
(0.999166 -0.000110095 0)
(0.99769 0.000956368 0)
(0.99754 0.00162588 0)
(0.9986 0.0012611 0)
(0.99866 0.00133839 0)
(0.997727 0.00226797 0)
(0.997515 0.00307271 0)
(0.998479 0.00304915 0)
(0.999193 0.00295229 0)
(0.999105 0.00321006 0)
(0.999974 -0.0016605 0)
(0.997957 -0.000401693 0)
(0.999066 0.001072 0)
(1.00012 -0.00188614 0)
(0.998128 -0.000568628 0)
(0.998577 0.00108542 0)
(1.00018 -0.000994611 0)
(0.998636 -0.000994544 0)
(0.997424 0.00082801 0)
(0.998765 0.000604503 0)
(0.999217 -4.40317e-05 0)
(0.997923 0.000836942 0)
(0.997598 0.00164756 0)
(0.998548 0.0014246 0)
(0.998809 0.00136502 0)
(0.998046 0.00209999 0)
(0.997689 0.00293429 0)
(0.998455 0.0030479 0)
(0.999217 0.00290539 0)
(0.999259 0.00309705 0)
(0.999987 -0.00143892 0)
(0.998204 -0.000534866 0)
(0.999025 0.000921541 0)
(1.00004 -0.00158268 0)
(0.998367 -0.000693961 0)
(0.998555 0.000939905 0)
(1 -0.0007452 0)
(0.998813 -0.000963094 0)
(0.9976 0.000705552 0)
(0.998666 0.000725255 0)
(0.999236 5.74527e-05 0)
(0.998156 0.000734724 0)
(0.9977 0.00161699 0)
(0.998501 0.00155678 0)
(0.998908 0.00142413 0)
(0.998339 0.00196371 0)
(0.997904 0.0027624 0)
(0.998456 0.00301473 0)
(0.99922 0.00286941 0)
(0.999372 0.00299824 0)
(0.999997 -0.00123968 0)
(0.998432 -0.000629416 0)
(0.999009 0.000763504 0)
(0.999961 -0.00130949 0)
(0.99858 -0.000772843 0)
(0.998565 0.000781839 0)
(0.999835 -0.000522904 0)
(0.998959 -0.00089553 0)
(0.997792 0.0005777 0)
(0.998593 0.000807143 0)
(0.999227 0.000187064 0)
(0.998376 0.000662049 0)
(0.997841 0.00154815 0)
(0.998473 0.00164755 0)
(0.998965 0.00149933 0)
(0.998594 0.00186759 0)
(0.998145 0.00257843 0)
(0.998494 0.00294096 0)
(0.999209 0.00283868 0)
(0.999454 0.00290482 0)
(1 -0.00106191 0)
(0.998643 -0.000690278 0)
(0.999014 0.000603706 0)
(0.999882 -0.00107024 0)
(0.998767 -0.000809076 0)
(0.9986 0.000620077 0)
(0.999683 -0.000335277 0)
(0.999074 -0.000797358 0)
(0.997992 0.000456339 0)
(0.998551 0.000848923 0)
(0.999199 0.000327904 0)
(0.998572 0.00062553 0)
(0.998011 0.00145936 0)
(0.998471 0.00169491 0)
(0.998994 0.00157406 0)
(0.998803 0.00180934 0)
(0.998395 0.00240304 0)
(0.998574 0.00282727 0)
(0.999198 0.00280185 0)
(0.999513 0.00281666 0)
(1.00001 -0.000905193 0)
(0.998834 -0.000721407 0)
(0.999038 0.000448848 0)
(0.999806 -0.000866509 0)
(0.998927 -0.000809379 0)
(0.998658 0.000463903 0)
(0.999551 -0.000183998 0)
(0.99916 -0.00067758 0)
(0.998192 0.000351088 0)
(0.998542 0.000855637 0)
(0.999162 0.000460934 0)
(0.998738 0.000621688 0)
(0.998198 0.00136439 0)
(0.998502 0.00170093 0)
(0.999009 0.00163545 0)
(0.998966 0.00177965 0)
(0.998635 0.00225068 0)
(0.998692 0.0026856 0)
(0.999198 0.0027471 0)
(0.999553 0.002736 0)
(1.00001 -0.000768054 0)
(0.999006 -0.000728206 0)
(0.999078 0.00030449 0)
(0.999738 -0.000697438 0)
(0.999062 -0.000780659 0)
(0.998732 0.000320452 0)
(0.999442 -6.91591e-05 0)
(0.99922 -0.000546662 0)
(0.998385 0.000269509 0)
(0.998565 0.000833912 0)
(0.999124 0.000576358 0)
(0.998874 0.000644826 0)
(0.99839 0.00127475 0)
(0.998563 0.00167225 0)
(0.999021 0.0016757 0)
(0.999091 0.00176623 0)
(0.998853 0.00212645 0)
(0.998837 0.00253242 0)
(0.99922 0.00266734 0)
(0.999581 0.00265987 0)
(1.00001 -0.000649047 0)
(0.999159 -0.000715124 0)
(0.99913 0.000173958 0)
(0.99968 -0.000561651 0)
(0.999172 -0.000730052 0)
(0.998817 0.000195119 0)
(0.999359 1.163e-05 0)
(0.99926 -0.000413515 0)
(0.998564 0.000213386 0)
(0.998616 0.000792007 0)
(0.999094 0.000667198 0)
(0.998981 0.00068627 0)
(0.998578 0.00119931 0)
(0.998651 0.00161911 0)
(0.999042 0.00169147 0)
(0.999185 0.00175804 0)
(0.99904 0.00202815 0)
(0.998995 0.00238247 0)
(0.999269 0.00256393 0)
(0.999606 0.00258168 0)
(1.00001 -0.000546658 0)
(0.999292 -0.000686947 0)
(0.99919 6.04018e-05 0)
(0.999632 -0.000455764 0)
(0.999262 -0.000665133 0)
(0.998907 9.21454e-05 0)
(0.999301 6.43179e-05 0)
(0.999285 -0.000285977 0)
(0.998726 0.000182564 0)
(0.99869 0.000740497 0)
(0.999079 0.000731473 0)
(0.999065 0.000735689 0)
(0.998752 0.00114136 0)
(0.99876 0.00155177 0)
(0.999076 0.00168239 0)
(0.999258 0.00174685 0)
(0.999197 0.00194956 0)
(0.999153 0.00224496 0)
(0.999341 0.00244461 0)
(0.999634 0.00249518 0)
(1.00001 -0.000459196 0)
(0.999408 -0.000647619 0)
(0.999256 -3.57175e-05 0)
(0.999598 -0.000376009 0)
(0.999334 -0.000592147 0)
(0.998999 1.23327e-05 0)
(0.999268 9.42185e-05 0)
(0.999302 -0.000170533 0)
(0.998869 0.00017366 0)
(0.998779 0.000687219 0)
(0.99908 0.000770094 0)
(0.999132 0.000783824 0)
(0.998908 0.00110027 0)
(0.998881 0.00147947 0)
(0.999125 0.00165158 0)
(0.999321 0.00172724 0)
(0.999326 0.00188355 0)
(0.999302 0.00212319 0)
(0.999431 0.002319 0)
(0.999673 0.00239785 0)
(1.00001 -0.000384953 0)
(0.999507 -0.000601023 0)
(0.999324 -0.00011259 0)
(0.999575 -0.000317242 0)
(0.999391 -0.000517094 0)
(0.999089 -4.54386e-05 0)
(0.999257 0.0001071 0)
(0.999315 -7.07976e-05 0)
(0.998992 0.000181998 0)
(0.998878 0.000637826 0)
(0.9991 0.000786613 0)
(0.999189 0.000824033 0)
(0.999045 0.00107249 0)
(0.999006 0.00140881 0)
(0.999189 0.00160428 0)
(0.999379 0.00169644 0)
(0.999433 0.00182376 0)
(0.999436 0.00201612 0)
(0.99953 0.00219492 0)
(0.999723 0.00229129 0)
(1.00001 -0.000322207 0)
(0.999591 -0.000550208 0)
(0.999392 -0.000170286 0)
(0.999565 -0.000274998 0)
(0.999438 -0.000444198 0)
(0.999175 -8.25418e-05 0)
(0.999265 0.000108883 0)
(0.999329 1.10372e-05 0)
(0.999098 0.00020175 0)
(0.99898 0.000595685 0)
(0.999136 0.000785932 0)
(0.999241 0.000852525 0)
(0.999164 0.00105293 0)
(0.99913 0.00134323 0)
(0.999265 0.00154607 0)
(0.999438 0.00165396 0)
(0.999523 0.00176514 0)
(0.999553 0.00192047 0)
(0.999631 0.00207685 0)
(0.999784 0.00217947 0)
(1.00001 -0.000269376 0)
(0.999662 -0.000497729 0)
(0.999459 -0.000210667 0)
(0.999565 -0.000245172 0)
(0.999477 -0.000376279 0)
(0.999254 -0.000101118 0)
(0.999289 0.000104773 0)
(0.999347 7.5962e-05 0)
(0.999189 0.000227876 0)
(0.999081 0.000562306 0)
(0.999187 0.000773242 0)
(0.999293 0.000867889 0)
(0.999267 0.00103677 0)
(0.999247 0.00128375 0)
(0.999349 0.00148193 0)
(0.999501 0.00160117 0)
(0.999601 0.00170443 0)
(0.999654 0.0018325 0)
(0.999726 0.00196624 0)
(0.999851 0.00206656 0)
(1 -0.000224966 0)
(0.999721 -0.000445665 0)
(0.999523 -0.000235662 0)
(0.999575 -0.000223627 0)
(0.999511 -0.000315348 0)
(0.999327 -0.0001058 0)
(0.999323 9.90509e-05 0)