/*--------------------------------*- C++ -*----------------------------------*\
| =========                 |                                                 |
| \\      /  F ield         | OpenFOAM: The Open Source CFD Toolbox           |
|  \\    /   O peration     | Version:  3.0.1                                 |
|   \\  /    A nd           | Web:      www.OpenFOAM.org                      |
|    \\/     M anipulation  |                                                 |
\*---------------------------------------------------------------------------*/
FoamFile
{
    version     2.0;
    format      ascii;
    class       volScalarField;
    location    "3.5";
    object      p;
}
// * * * * * * * * * * * * * * * * * * * * * * * * * * * * * * * * * * * * * //

dimensions      [0 2 -2 0 0 0 0];

internalField   nonuniform List<scalar> 
9600
(
4.49107e-11
0.00118558
0.00152128
-4.14306e-06
-0.00117135
-0.0011426
-0.000354947
0.00109505
0.00229993
0.00341868
0.00281478
0.00122192
0.00184895
0.0028388
0.00209764
0.0028762
0.00272107
0.00459608
0.00561437
0.00994301
8.95688e-07
0.00119021
0.00151171
-1.54082e-05
-0.00116305
-0.00112669
-0.00036928
0.00108843
0.00229294
0.00336449
0.00282102
0.00121182
0.0018587
0.00283143
0.00211226
0.00287537
0.0027402
0.00457366
0.00568839
0.00962583
3.43339e-06
0.00119458
0.00149584
-2.32208e-05
-0.00115382
-0.00111447
-0.000381014
0.00107577
0.00227493
0.00331737
0.00282002
0.00120558
0.00186926
0.00282489
0.00213527
0.00286743
0.00277035
0.00452946
0.00573992
0.00924709
8.02713e-06
0.00119708
0.00147846
-2.53777e-05
-0.00114393
-0.00110533
-0.000383936
0.00105964
0.00225554
0.00327523
0.00281478
0.00120496
0.00188043
0.00281992
0.0021625
0.00285511
0.002805
0.0044734
0.00576046
0.0088866
1.54167e-05
0.00119804
0.00145971
-2.1582e-05
-0.00113229
-0.00109814
-0.000376399
0.00104173
0.00223738
0.00323636
0.0028103
0.00120919
0.00189288
0.00281525
0.00219309
0.0028398
0.0028391
0.00441563
0.00575305
0.00854152
2.58711e-05
0.00119715
0.00144022
-1.15791e-05
-0.00111783
-0.00109042
-0.000358227
0.00102266
0.00222086
0.00320053
0.00280886
0.00121753
0.00190673
0.00281049
0.00222601
0.00282215
0.0028721
0.00436086
0.00572052
0.00821363
3.89531e-05
0.0011945
0.00142138
4.16431e-06
-0.00109973
-0.00107981
-0.000330607
0.00100396
0.00220683
0.00316747
0.00281117
0.00122896
0.00192199
0.00280556
0.00226013
0.00280429
0.00290314
0.00431001
0.00566924
0.00790528
5.39482e-05
0.0011907
0.00140394
2.49823e-05
-0.00107753
-0.00106495
-0.00029477
0.000987524
0.00219542
0.00313649
0.00281689
0.00124238
0.00193868
0.00280049
0.00229461
0.00278838
0.00292908
0.00426384
0.00560224
0.00761369
7.02227e-05
0.00118629
0.00138788
5.07853e-05
-0.00105126
-0.00104547
-0.00025145
0.00097438
0.00218576
0.00310655
0.00282502
0.00125674
0.00195666
0.00279563
0.00232851
0.00277549
0.00294752
0.00422404
0.00549452
0.00733172
8.73444e-05
0.00118165
0.0013728
9.08205e-05
-0.00102135
-0.00102176
-0.000202546
0.00096469
0.00217679
0.00307647
0.0028344
0.00127114
0.00197555
0.00279176
0.00236036
0.00276633
0.00295766
0.00419138
0.00539234
0.00705301
0.000105083
0.00117702
0.00135818
0.000122573
-0.000988358
-0.00099463
-0.000153199
0.000958126
0.00216772
0.00304533
0.00284395
0.0012849
0.00199486
0.00278977
0.0023886
0.00276188
0.00295893
0.00416301
0.00528416
0.00677491
0.000123353
0.00117253
0.00134368
0.000155137
-0.000952875
-0.000964889
-0.000101997
0.000954152
0.00215806
0.00301259
0.00285286
0.00129776
0.00201388
0.0027905
0.00241198
0.00276274
0.00295064
0.00413533
0.00517049
0.00649517
0.00014214
0.00116825
0.00132921
0.000188285
-0.000915373
-0.000933247
-4.95154e-05
0.000952211
0.00214756
0.00297809
0.00286052
0.00130988
0.00203174
0.00279483
0.00242965
0.0027685
0.00293306
0.00410573
0.00505381
0.00621068
0.000161456
0.0011642
0.00131477
0.000221652
-0.000876069
-0.000900194
3.66097e-06
0.000951812
0.00213616
0.00294203
0.00286648
0.00132169
0.00204751
0.0028036
0.00244108
0.00277806
0.00290777
0.00406985
0.00493796
0.0059215
0.000181326
0.0011604
0.00130041
0.000254985
-0.000835031
-0.000866005
5.71005e-05
0.000952607
0.0021239
0.00290489
0.00287039
0.00133373
0.0020603
0.00281741
0.00244598
0.00278992
0.0028773
0.00402225
0.00482681
0.00563065
0.000201778
0.00115683
0.00128622
0.000288057
-0.000792253
-0.000830828
0.000110505
0.000954403
0.00211085
0.00286727
0.00287188
0.00134665
0.00206922
0.00283661
0.00244459
0.00280172
0.00284464
0.00395917
0.00472145
0.00534261
0.00022284
0.00115346
0.00127234
0.000318457
-0.000747707
-0.000794724
0.00016363
0.000957117
0.00209701
0.00282988
0.00287053
0.00136112
0.00207363
0.00286109
0.0024379
0.00281003
0.00281273
0.00387889
0.00462045
0.00506294
0.000244541
0.00115026
0.0012589
0.000350568
-0.000701389
-0.000757687
0.00021623
0.000960743
0.0020823
0.00279341
0.00286603
0.00137751
0.00207339
0.00289027
0.0024272
0.00281157
0.00278384
0.00378132
0.00452468
0.00479742
0.000266915
0.00114723
0.00124605
0.000382133
-0.0006533
-0.000719669
0.000268038
0.000965341
0.00206654
0.00275851
0.00285813
0.00139598
0.00206844
0.00292329
0.00241439
0.00280336
0.0027596
0.00366788
0.00447606
0.00455134
0.000289993
0.00114433
0.00123389
0.000413083
-0.000603452
-0.000680579
0.00031877
0.000971023
0.00204951
0.00272575
0.00284666
0.00141657
0.0020589
0.0029586
0.00240199
0.00278268
0.0027406
0.0035404
0.00437285
0.00432879
0.000313802
0.00114158
0.00122255
0.00044339
-0.000551921
-0.000640273
0.00036815
0.000977916
0.00203098
0.00269552
0.00283165
0.00143894
0.00204537
0.00299447
0.00239194
0.00274769
0.00272561
0.00340344
0.00425238
0.00413172
0.000338363
0.00113899
0.00121212
0.000473062
-0.000498824
-0.000598605
0.00041591
0.000986193
0.00201076
0.00266794
0.00281342
0.00146244
0.00202853
0.0030292
0.00238555
0.002698
0.00271216
0.00326258
0.00411486
0.00395887
0.000363688
0.00113659
0.00120267
0.000502135
-0.000444295
-0.000555441
0.000461791
0.000995999
0.0019887
0.00264302
0.00279243
0.00148619
0.00200904
0.00306124
0.00238381
0.00263411
0.00269724
0.00312274
0.00395981
0.00380655
0.000389775
0.00113447
0.00119425
0.000530653
-0.000388505
-0.000510649
0.00050556
0.00100744
0.00196479
0.00262053
0.00276889
0.00150929
0.00198759
0.0030893
0.00238717
0.00255689
0.00267802
0.00298851
0.00378778
0.00366885
0.000416599
0.00113274
0.0011869
0.000558698
-0.000331637
-0.000464141
0.000547041
0.00102064
0.00193927
0.00259982
0.00274272
0.00153132
0.0019646
0.00311189
0.00239574
0.0024682
0.00265192
0.00286336
0.00360056
0.00353947
0.000444113
0.00113156
0.00118065
0.000586351
-0.000273857
-0.000415917
0.000586184
0.00103556
0.0019124
0.00258038
0.0027186
0.00155195
0.00194033
0.0031276
0.00240959
0.0023701
0.00261574
0.00275017
0.00340144
0.00341242
0.000472252
0.00113117
0.00117547
0.000613662
-0.000215275
-0.000365968
0.000623031
0.00105188
0.00188443
0.00256184
0.00269451
0.00157075
0.0019149
0.00313561
0.00242832
0.00226469
0.00256642
0.0026518
0.00319463
0.00328002
0.000500922
0.00113183
0.00117139
0.000640679
-0.000155995
-0.000314299
0.000657777
0.00106931
0.00185564
0.00254364
0.00267088
0.00158731
0.00188806
0.00313541
0.00245115
0.00215465
0.00250138
0.00257002
0.00298555
0.00313244
0.000529983
0.00113384
0.00116849
0.000667412
-9.62e-05
-0.000261196
0.000690827
0.0010878
0.0018263
0.0025252
0.00264811
0.00160138
0.00185949
0.00312641
0.00247709
0.00204304
0.00241857
0.0025042
0.00278378
0.00296072
0.000559282
0.0011375
0.00116685
0.000693845
-3.58351e-05
-0.00020714
0.000722459
0.00110733
0.00179659
0.00250598
0.0026266
0.001613
0.00182877
0.00310783
0.00250499
0.00193358
0.00231701
0.00244977
0.00259863
0.00276255
0.000588663
0.00114314
0.00116658
0.000719904
2.54504e-05
-0.000152622
0.000752617
0.00112799
0.00176673
0.00248535
0.00260659
0.00162242
0.00179537
0.0030791
0.00253336
0.00183016
0.00219756
0.002399
0.0024386
0.00254651
0.000617937
0.00115102
0.00116798
0.000745251
8.79733e-05
-9.78869e-05
0.000781155
0.00115012
0.00173695
0.00246239
0.00258809
0.0016301
0.00175878
0.00304018
0.00256067
0.00173506
0.00206288
0.00234452
0.00231312
0.00232929
0.000646975
0.0011614
0.00117141
0.000769428
0.000151981
-4.29293e-05
0.000807731
0.00117423
0.00170762
0.00243581
0.00257079
0.00163698
0.0017184
0.0029907
0.00258606
0.00164932
0.00191587
0.00228117
0.00221752
0.00212734
0.000675709
0.00117434
0.00117747
0.000791959
0.000217396
1.2447e-05
0.000831686
0.00120064
0.00167958
0.00240447
0.00255392
0.00164429
0.00167405
0.00292946
0.00260889
0.00157491
0.0017596
0.00220572
0.00214452
0.00195135
0.000704095
0.00118968
0.00118708
0.000812588
0.000283786
6.87653e-05
0.00085188
0.00122918
0.00165415
0.00236764
0.00253614
0.0016528
0.00162664
0.00285559
0.00262766
0.00151468
0.00159699
0.0021161
0.00208748
0.00180577
0.000732178
0.00120704
0.00120113
0.000831439
0.000350568
0.000126797
0.000867349
0.00125946
0.00163291
0.00232465
0.00251553
0.00166285
0.00157766
0.0027689
0.00263994
0.00147091
0.00143102
0.00201005
0.00204242
0.00169269
0.000760098
0.00122573
0.00122051
0.000849171
0.000416433
0.00018775
0.000878255
0.00128978
0.00161656
0.00227558
0.00249011
0.00167465
0.00152842
0.0026695
0.00264361
0.00144527
0.00126683
0.00188494
0.00200442
0.0016123
0.000788207
0.00124468
0.00124588
0.000867131
0.000479493
0.000252601
0.00088567
0.00131768
0.00160519
0.00222083
0.00245808
0.00168777
0.00148006
0.00255825
0.00263629
0.00143793
0.0011113
0.00173893
0.00196664
0.00156407
0.000816934
0.00126306
0.00127722
0.00088748
0.000538335
0.000321173
0.000890978
0.00134087
0.001599
0.00215164
0.00241807
0.00170102
0.00143461
0.0024371
0.00261513
0.00144721
0.000970778
0.00157292
0.00192135
0.00154637
0.000846672
0.0012803
0.00131384
0.000912434
0.00059232
0.000392248
0.000895575
0.00135724
0.00159778
0.00209123
0.00236979
0.00171287
0.0013938
0.00230865
0.00257796
0.00146995
0.000851188
0.00139086
0.00185854
0.00155322
0.000877955
0.00129572
0.00135455
0.000944273
0.000641287
0.0004637
0.000901271
0.00136605
0.0015995
0.00203504
0.00231521
0.00172224
0.00135789
0.00217518
0.00252317
0.00150119
0.000757129
0.00119992
0.00176921
0.00157356
0.000911624
0.00130885
0.00139724
0.000985052
0.000686758
0.000532818
0.000908595
0.00136729
0.00160061
0.00198497
0.00225871
0.00172909
0.00132751
0.00203912
0.00244984
0.00153575
0.000690812
0.00100898
0.00164948
0.00159297
0.000948343
0.00131959
0.00143965
0.00103557
0.000730896
0.000599152
0.000917794
0.00135838
0.00159622
0.00194218
0.00220551
0.0017345
0.00130373
0.00190419
0.00235857
0.00156806
0.000653172
0.000827408
0.00150062
0.00159632
0.000988367
0.00132871
0.00147971
0.00109631
0.000775623
0.000660654
0.000929228
0.00132542
0.00158425
0.00190736
0.0021563
0.00173896
0.00128689
0.00177416
0.00225084
0.00159158
0.000642878
0.000664033
0.00132818
0.00157186
0.00103209
0.00133689
0.00151526
0.00116826
0.000822889
0.000710592
0.000943374
0.00130724
0.0015685
0.00187316
0.00210946
0.00174215
0.00127658
0.00165124
0.0021289
0.00160049
0.000655111
0.000527173
0.00114183
0.0015137
0.00107963
0.00133424
0.00154492
0.00124401
0.000873617
0.00075185
0.000960823
0.0012952
0.00154961
0.00183478
0.00206061
0.00174232
0.00127206
0.00153772
0.00199649
0.00159121
0.000682918
0.000422468
0.000953001
0.00142201
0.00113088
0.00134656
0.00156704
0.00131971
0.000932183
0.000788772
0.000977397
0.00128826
0.00153001
0.00179315
0.00200724
0.00173784
0.00127328
0.00143681
0.00185895
0.00156292
0.00071875
0.000351138
0.000772192
0.00130121
0.00118562
0.00136249
0.00158105
0.00139352
0.00100027
0.000822358
0.000989272
0.00128675
0.00151451
0.00174843
0.001949
0.00172874
0.00128012
0.00135034
0.00172126
0.00151618
0.000754433
0.000310925
0.000609951
0.00115923
0.00124343
0.00138305
0.00158859
0.00146163
0.00107607
0.000855512
0.000995943
0.00128795
0.00150585
0.00170603
0.00188741
0.00171352
0.00129017
0.00127832
0.00158782
0.00145314
0.000782845
0.000296169
0.000475482
0.00100688
0.00130386
0.00140967
0.00159075
0.00151974
0.00115738
0.000892784
0.000998073
0.00128771
0.0015031
0.00167041
0.00182416
0.00168972
0.00130066
0.00122067
0.00146255
0.00137834
0.000800148
0.000298301
0.000372981
0.000856467
0.00136611
0.00144335
0.00158809
0.00156412
0.00124046
0.000938203
0.000997513
0.00128315
0.00150567
0.00164395
0.00176192
0.00165665
0.00130845
0.00117639
0.00134824
0.00129645
0.000805898
0.000321791
0.00030242
0.000720177
0.00142925
0.0014845
0.00158706
0.00159285
0.00132093
0.000994688
0.000998328
0.00127204
0.00150879
0.00162663
0.00170535
0.00161664
0.00131066
0.00114326
0.00124729
0.00121142
0.000798993
0.000341079
0.000258631
0.000606637
0.00149227
0.00153259
0.00158852
0.00160627
0.00139536
0.00106227
0.00100508
0.00125415
0.00150664
0.00161695
0.0016589
0.00157358
0.0013059
0.00111801
0.0011608
0.00112683
0.00078083
0.000358655
0.000234284
0.000518318
0.00155402
0.00158486
0.00159678
0.00160977
0.00145959
0.00113845
0.00102155
0.00123119
0.00149564
0.00161231
0.00162424
0.00153141
0.00129493
0.00109739
0.00108759
0.00104601
0.000754018
0.00037537
0.000223833
0.000452851
0.00161393
0.00163969
0.00161402
0.00160766
0.00151003
0.00121856
0.00105035
0.00120768
0.00147486
0.0016073
0.0016008
0.00149447
0.00127987
0.00107991
0.00102626
0.000972379
0.000728739
0.000390538
0.000224704
0.000405756
0.00167189
0.00169463
0.0016404
0.00160504
0.00154583
0.00129628
0.00109166
0.00118999
0.0014459
0.00159644
0.00158632
0.00146638
0.00126315
0.00106453
0.000976055
0.000906209
0.000697862
0.000401243
0.000234888
0.000374501
0.00172821
0.00174843
0.00167494
0.00160585
0.00156785
0.00136587
0.00114394
0.00118309
0.0014124
0.00157744
0.00157586
0.00144806
0.0012486
0.0010507
0.000935719
0.000847859
0.000663283
0.000406565
0.000251182
0.000359305
0.00178335
0.00180031
0.00171515
0.00161266
0.00157876
0.00142376
0.00120376
0.00118936
0.00138007
0.00155119
0.00156447
0.00143748
0.00123973
0.00104017
0.000903906
0.000798716
0.000628764
0.000406698
0.00026934
0.000359108
0.00183754
0.00184963
0.0017584
0.00162701
0.00158319
0.00146815
0.00126535
0.00120873
0.00135455
0.00151981
0.00154971
0.00143149
0.00123678
0.00103538
0.000880547
0.000759238
0.000597696
0.000403143
0.000286179
0.000369734
0.00189091
0.00189639
0.0018017
0.00164859
0.00158613
0.00149951
0.00132303
0.00123959
0.00133965
0.00148771
0.00153098
0.00142772
0.00123883
0.00103697
0.000866991
0.000729353
0.000573273
0.00039912
0.000300843
0.000386342
0.00194329
0.00194076
0.00184317
0.00167607
0.00159124
0.00151984
0.00137311
0.00127799
0.00133676
0.00145996
0.00150912
0.00142409
0.00124559
0.00104442
0.000863722
0.000709943
0.000556113
0.00039793
0.000314511
0.000405857
0.00199424
0.0019831
0.00188193
0.00170735
0.00160044
0.00153278
0.0014141
0.00131922
0.0013452
0.00144068
0.00148777
0.00141927
0.00125588
0.00105761
0.000869608
0.000702649
0.000546465
0.000401195
0.000329396
0.000426849
0.00204321
0.00202368
0.00191789
0.00173985
0.00161405
0.00154234
0.0014463
0.00135953
0.00136288
0.00143125
0.00147137
0.00141449
0.00126735
0.00107677
0.000883805
0.000707422
0.000546958
0.000409908
0.00034775
0.00044967
0.00208959
0.00206257
0.00195125
0.00177133
0.00163101
0.00155155
0.00147109
0.00139642
0.00138702
0.00143177
0.00146227
0.0014134
0.00128031
0.00110053
0.000906636
0.000723047
0.00055928
0.000425862
0.000370745
0.000475574
0.00213278
0.00209923
0.00198228
0.001801
0.00165011
0.00156161
0.00149093
0.00142901
0.00141482
0.00144213
0.00146143
0.00141836
0.00129789
0.00112818
0.000938174
0.000750194
0.000583673
0.00045216
0.000400616
0.000506706
0.00217225
0.0021331
0.00201086
0.00182841
0.00166992
0.00157285
0.00150799
0.00145766
0.00144394
0.00146092
0.00147036
0.00143006
0.00132233
0.00116252
0.000978233
0.000789852
0.000619884
0.000489514
0.00043938
0.000544662
0.00220745
0.00216363
0.00203676
0.00185309
0.00168902
0.00158474
0.00152331
0.00148323
0.00147345
0.00148558
0.00148956
0.00145095
0.00135453
0.00120661
0.0010281
0.000842257
0.00066956
0.000538449
0.000488659
0.000591499
0.00223788
0.00219049
0.00205945
0.00187472
0.00170655
0.00159638
0.00153691
0.00150608
0.00150319
0.00151482
0.00151757
0.00148347
0.00139712
0.00126255
0.00109139
0.000909231
0.000736622
0.000602551
0.000552336
0.000651117
0.00226267
0.00221268
0.00207854
0.00189295
0.00172196
0.00160726
0.00154901
0.00152604
0.00153209
0.00154819
0.00155315
0.00152724
0.00145302
0.00133526
0.00117408
0.000987766
0.000812233
0.000676517
0.000630425
0.000725261
0.00228133
0.00222905
0.0020931
0.00190702
0.00173459
0.00161692
0.00155933
0.00154317
0.00155883
0.00158337
0.00159648
0.00158227
0.00152471
0.00142874
0.00130852
0.00116273
0.00099056
0.000848145
0.000773269
0.000848532
0.00229414
0.00224042
0.00209988
0.00191446
0.00174272
0.00162396
0.00156686
0.00155651
0.0015825
0.00161741
0.00164945
0.00165636
0.0016125
0.00150962
0.00136915
0.00122074
0.00110606
0.000982805
0.000913035
0.000976671
0.00229764
0.00224403
0.00210499
0.00191933
0.00174508
0.00162482
0.00156979
0.00156613
0.00159998
0.00164178
0.00169153
0.00174605
0.00177127
0.00175359
0.00169064
0.00157541
0.00139405
0.00124079
0.00115424
0.00119003
0.00228963
0.00223754
0.00210457
0.00191885
0.00174096
0.00162081
0.0015665
0.00157088
0.0016152
0.00166251
0.00170427
0.00174767
0.00177381
0.00178147
0.00177281
0.00173445
0.00164914
0.00154029
0.00146191
0.00149467
0.00227852
0.00222866
0.00208795
0.00189948
0.00172857
0.00161182
0.00155796
0.00155612
0.00160768
0.00170506
0.00183828
0.00200124
0.00214423
0.00223483
0.0022641
0.00223051
0.00215526
0.00200386
0.0018238
0.00170395
0.00225301
0.00220433
0.00206583
0.00188266
0.00171454
0.00159332
0.00153408
0.00151767
0.00151908
0.00149595
0.00148448
0.00158303
0.00187175
0.00229221
0.00268135
0.0029561
0.00313757
0.00330861
0.00349896
0.00365659
0.00220805
0.00215705
0.00203167
0.00187262
0.00173264
0.00163105
0.00155495
0.00150666
0.00153461
0.00169559
0.00199538
0.00234065
0.00259948
0.00275912
0.00287006
0.00297384
0.00307454
0.00316896
0.00325506
0.00330014
0.00214719
0.0021107
0.00197635
0.0018009
0.0016365
0.00152508
0.0015266
0.00165335
0.00185382
0.00202598
0.00216163
0.0022754
0.00238409
0.00254487
0.00276794
0.00305564
0.00342021
0.00379512
0.00408541
0.004208
0.00203548
0.00202783
0.00197971
0.00191988
0.00188775
0.0018826
0.00189003
0.0019236
0.00200287
0.00211043
0.00223175
0.00239014
0.00255066
0.00267131
0.00274196
0.00270474
0.00255063
0.00231641
0.002076
0.00189233
0.00188143
0.00186758
0.00191721
0.00195872
0.00194687
0.00189834
0.00188
0.0019084
0.0019693
0.00208257
0.00220672
0.00235153
0.00253584
0.00272488
0.00294668
0.00321211
0.00350141
0.00378096
0.00399771
0.0040955
0.00179129
0.0017915
0.00187849
0.00199144
0.00209761
0.00215344
0.00216912
0.00216905
0.00218319
0.00224714
0.00233257
0.00242888
0.00257742
0.00274589
0.00290367
0.00305604
0.00320097
0.00333267
0.00341812
0.00341237
0.0132086
0.00781063
0.000345765
-0.00504898
-0.00614042
-0.00495709
-0.00346924
-0.00219183
-0.00121093
-0.000443456
0.000184009
0.000573763
0.000717875
0.000846636
0.00113858
0.00152564
0.00186757
0.00212434
0.00229524
0.00241059
0.00259151
0.00288422
0.00316992
0.00337898
0.00358091
0.00385561
0.00420857
0.00456954
0.00486854
0.00513424
0.00543854
0.00577364
0.00607055
0.00631472
0.00655581
0.00682198
0.00710006
0.00739129
0.0077194
0.00807959
0.00843648
0.00878715
0.00915198
0.00951809
0.00984315
0.0101357
0.0104534
0.010807
0.0111592
0.0115122
0.0119085
0.0123381
0.0127431
0.0131407
0.0135682
0.013983
0.0143818
0.0148083
0.0152492
0.0156896
0.0161471
0.0166178
0.0170982
0.0175872
0.0180817
0.0185826
0.0190924
0.0196125
0.0201478
0.0206938
0.0212439
0.0218049
0.0223811
0.022973
0.0235759
0.0241891
0.024809
0.0254441
0.0260933
0.0267621
0.0274402
0.0281333
0.0288349
0.0295551
0.0302858
0.0310357
0.0317956
0.032574
0.0333588
0.0341629
0.034975
0.0358079
0.0366476
0.037498
0.0383616
0.0392147
0.0400808
0.0409191
0.0416178
0.0423478
0.0125291
0.00766401
0.000438907
-0.00490291
-0.00606132
-0.00492225
-0.00344872
-0.0021771
-0.00119935
-0.000433823
0.000192796
0.000581958
0.000724897
0.000852302
0.00114332
0.0015299
0.00187146
0.00212793
0.00229853
0.00241339
0.00259385
0.00288643
0.00317212
0.00338101
0.00358268
0.00385717
0.00421002
0.00457097
0.0048699
0.00513544
0.00543961
0.0057747
0.0060716
0.00631571
0.00655671
0.00682283
0.00710087
0.00739205
0.0077201
0.00808028
0.00843715
0.00878778
0.00915259
0.00951869
0.00984375
0.0101362
0.0104539
0.0108075
0.0111597
0.0115126
0.0119089
0.0123386
0.0127435
0.0131411
0.0135686
0.0139833
0.0143821
0.0148087
0.0152496
0.0156899
0.0161474
0.0166181
0.0170985
0.0175875
0.0180819
0.0185828
0.0190926
0.0196127
0.020148
0.020694
0.0212441
0.021805
0.0223812
0.0229731
0.023576
0.0241893
0.0248091
0.0254442
0.0260935
0.0267622
0.0274404
0.0281334
0.0288351
0.0295552
0.0302859
0.0310358
0.0317957
0.0325742
0.0333589
0.034163
0.0349751
0.035808
0.0366477
0.0374981
0.0383617
0.0392148
0.0400809
0.0409191
0.0416179
0.0423478
0.0118431
0.00747408
0.000610929
-0.00463058
-0.00591811
-0.00486917
-0.00342248
-0.00215907
-0.00118555
-0.000423114
0.000201249
0.000589187
0.000731583
0.000858532
0.00114891
0.00153465
0.00187543
0.0021314
0.0023017
0.00241611
0.00259613
0.00288853
0.00317411
0.0033828
0.00358426
0.00385861
0.00421141
0.00457233
0.00487115
0.00513651
0.0054406
0.00577569
0.00607257
0.00631657
0.00655749
0.00682357
0.00710156
0.00739268
0.00772071
0.00808089
0.00843774
0.00878833
0.00915313
0.00951925
0.00984429
0.0101367
0.0104544
0.010808
0.0111601
0.011513
0.0119092
0.0123389
0.0127439
0.0131414
0.0135689
0.0139837
0.0143824
0.0148089
0.0152498
0.0156901
0.0161476
0.0166184
0.0170987
0.0175877
0.0180821
0.018583
0.0190928
0.0196129
0.0201482
0.0206942
0.0212442
0.0218052
0.0223814
0.0229733
0.0235762
0.0241894
0.0248093
0.0254443
0.0260936
0.0267623
0.0274405
0.0281335
0.0288352
0.0295553
0.030286
0.0310359
0.0317958
0.0325742
0.033359
0.0341631
0.0349751
0.0358081
0.0366478
0.0374981
0.0383618
0.0392149
0.0400809
0.0409192
0.0416179
0.0423478
0.0111864
0.00728176
0.000840812
-0.00426783
-0.00570656
-0.00478467
-0.0033798
-0.00213095
-0.00116506
-0.000408169
0.000211096
0.000596056
0.00073851
0.000866571
0.00115689
0.0015412
0.00188037
0.00213557
0.00230582
0.00242011
0.00259953
0.0028912
0.00317625
0.00338473
0.00358618
0.00386045
0.00421307
0.00457387
0.00487259
0.00513782
0.0054418
0.00577684
0.00607363
0.00631751
0.00655833
0.00682435
0.00710227
0.00739333
0.00772136
0.00808154
0.00843835
0.00878891
0.00915371
0.00951985
0.00984485
0.0101372
0.0104548
0.0108084
0.0111605
0.0115134
0.0119096
0.0123393
0.0127443
0.0131418
0.0135693
0.013984
0.0143827
0.0148092
0.0152501
0.0156904
0.0161479
0.0166186
0.017099
0.0175879
0.0180824
0.0185832
0.019093
0.0196131
0.0201484
0.0206944
0.0212444
0.0218054
0.0223815
0.0229734
0.0235763
0.0241895
0.0248094
0.0254445
0.0260937
0.0267625
0.0274406
0.0281336
0.0288353
0.0295554
0.0302861
0.031036
0.0317959
0.0325743
0.0333591
0.0341632
0.0349752
0.0358082
0.0366479
0.0374982
0.0383618
0.0392149
0.040081
0.0409193
0.0416181
0.0423478
0.0105517
0.007088
0.00109065
-0.00387275
-0.00546278
-0.00468255
-0.00332691
-0.00209481
-0.00113779
-0.000388035
0.000223366
0.000603194
0.000746196
0.000877177
0.00116807
0.00155002
0.00188632
0.00214031
0.00231123
0.00242645
0.00260537
0.0028953
0.0031789
0.00338713
0.00358893
0.00386313
0.00421523
0.00457564
0.00487433
0.00513963
0.00544352
0.00577834
0.00607496
0.0063187
0.00655938
0.00682525
0.00710305
0.00739407
0.00772211
0.00808228
0.00843906
0.00878959
0.0091544
0.00952053
0.00984548
0.0101377
0.0104553
0.0108089
0.011161
0.0115138
0.01191
0.0123398
0.0127447
0.0131422
0.0135697
0.0139844
0.014383
0.0148095
0.0152504
0.0156907
0.0161482
0.0166189
0.0170992
0.0175882
0.0180826
0.0185834
0.0190932
0.0196133
0.0201486
0.0206946
0.0212446
0.0218055
0.0223817
0.0229736
0.0235765
0.0241897
0.0248095
0.0254446
0.0260939
0.0267626
0.0274407
0.0281337
0.0288354
0.0295556
0.0302862
0.0310361
0.031796
0.0325744
0.0333592
0.0341633
0.0349753
0.0358082
0.036648
0.0374983
0.0383619
0.039215
0.0400811
0.0409195
0.0416183
0.0423479
0.00994286
0.00687899
0.00133011
-0.0034712
-0.00520254
-0.00457216
-0.00327076
-0.00205496
-0.00110604
-0.000363893
0.000237881
0.000611052
0.000754913
0.000890118
0.00118202
0.00156076
0.00189293
0.0021451
0.00231749
0.00243522
0.00261425
0.00290152
0.00318258
0.0033904
0.00359293
0.00386707
0.00421806
0.00457759
0.00487634
0.00514202
0.00544586
0.00578032
0.00607669
0.00632036
0.00656086
0.0068264
0.00710396
0.00739494
0.00772298
0.0080831
0.00843985
0.00879041
0.00915525
0.00952133
0.0098462
0.0101384
0.0104559
0.0108094
0.0111615
0.0115143
0.0119105
0.0123403
0.0127452
0.0131426
0.0135701
0.0139848
0.0143834
0.0148099
0.0152508
0.015691
0.0161485
0.0166192
0.0170995
0.0175885
0.0180829
0.0185837
0.0190934
0.0196135
0.0201488
0.0206948
0.0212448
0.0218057
0.0223819
0.0229738
0.0235767
0.0241899
0.0248097
0.0254448
0.026094
0.0267627
0.0274409
0.0281339
0.0288355
0.0295557
0.0302863
0.0310362
0.0317962
0.0325745
0.0333593
0.0341634
0.0349754
0.0358083
0.0366481
0.0374984
0.038362
0.0392151
0.0400812
0.0409197
0.0416186
0.042348
0.00936216
0.00664377
0.0015458
-0.0030675
-0.00492545
-0.00445335
-0.00321267
-0.00201286
-0.0010709
-0.000336509
0.000254551
0.000620018
0.000764651
0.000904665
0.00119778
0.00157272
0.00189975
0.00214949
0.00232395
0.0024457
0.00262572
0.00290987
0.00318763
0.00339497
0.00359856
0.00387256
0.00422176
0.00457976
0.00487856
0.00514493
0.00544874
0.00578265
0.00607886
0.00632269
0.00656302
0.00682801
0.00710517
0.00739605
0.00772401
0.00808396
0.00844067
0.00879138
0.00915629
0.00952228
0.00984706
0.0101392
0.0104566
0.01081
0.0111621
0.0115149
0.0119111
0.0123408
0.0127458
0.0131432
0.0135706
0.0139853
0.0143838
0.0148103
0.0152512
0.0156914
0.0161488
0.0166195
0.0170999
0.0175888
0.0180832
0.018584
0.0190937
0.0196138
0.020149
0.0206951
0.021245
0.0218059
0.0223821
0.022974
0.0235768
0.0241901
0.0248099
0.0254449
0.0260942
0.0267629
0.027441
0.028134
0.0288357
0.0295558
0.0302865
0.0310364
0.0317963
0.0325747
0.0333594
0.0341635
0.0349755
0.0358085
0.0366482
0.0374985
0.0383622
0.0392152
0.0400814
0.0409199
0.0416191
0.0423482
0.00880878
0.00638264
0.001738
-0.00265825
-0.00462767
-0.00432398
-0.00315279
-0.0019695
-0.00103313
-0.000306155
0.000273494
0.000630279
0.000775227
0.000920197
0.00121467
0.0015855
0.00190677
0.00215355
0.00233024
0.00245694
0.00263871
0.00291974
0.003194
0.00340101
0.00360595
0.00387966
0.00422642
0.00458228
0.00488105
0.00514826
0.00545193
0.00578507
0.00608122
0.00632563
0.00656602
0.00683033
0.00710688
0.0073976
0.00772534
0.00808487
0.00844145
0.0087924
0.00915747
0.00952337
0.00984813
0.0101403
0.0104576
0.0108108
0.0111628
0.0115156
0.0119117
0.0123414
0.0127464
0.0131438
0.0135712
0.0139858
0.0143844
0.0148108
0.0152516
0.0156918
0.0161493
0.0166199
0.0171003
0.0175892
0.0180836
0.0185843
0.019094
0.0196141
0.0201493
0.0206954
0.0212453
0.0218062
0.0223823
0.0229742
0.0235771
0.0241903
0.0248101
0.0254451
0.0260943
0.0267631
0.0274412
0.0281342
0.0288358
0.029556
0.0302866
0.0310365
0.0317964
0.0325748
0.0333596
0.0341636
0.0349756
0.0358086
0.0366483
0.0374986
0.0383623
0.0392154
0.0400816
0.0409203
0.0416198
0.0423485
0.00828509
0.00610638
0.00190967
-0.0022444
-0.00430931
-0.00418343
-0.0030918
-0.00192614
-0.000993391
-0.000272852
0.000294897
0.000641904
0.000786496
0.000936419
0.00123241
0.00159904
0.00191421
0.00215765
0.00233647
0.00246844
0.00265237
0.00293043
0.00320128
0.00340828
0.00361484
0.00388816
0.00423197
0.00458524
0.0048839
0.00515201
0.00545531
0.0057873
0.00608343
0.00632889
0.00656973
0.00683342
0.00710929
0.00739978
0.00772715
0.00808597
0.0084422
0.00879338
0.00915862
0.00952446
0.00984934
0.0101418
0.010459
0.0108118
0.0111636
0.0115165
0.0119125
0.012342
0.0127471
0.0131446
0.013572
0.0139865
0.014385
0.0148114
0.0152522
0.0156923
0.0161498
0.0166204
0.0171007
0.0175897
0.018084
0.0185848
0.0190944
0.0196145
0.0201497
0.0206957
0.0212456
0.0218065
0.0223826
0.0229745
0.0235773
0.0241905
0.0248103
0.0254453
0.0260945
0.0267633
0.0274414
0.0281344
0.028836
0.0295561
0.0302868
0.0310367
0.0317966
0.032575
0.0333597
0.0341638
0.0349758
0.0358087
0.0366484
0.0374988
0.0383625
0.0392156
0.0400818
0.0409208
0.0416207
0.042349
0.00779668
0.00582544
0.00205803
-0.00183288
-0.00397252
-0.00403072
-0.00302965
-0.00188352
-0.000952045
-0.00023642
0.000319044
0.000655037
0.000798463
0.000953279
0.00125097
0.00161339
0.00192222
0.00216204
0.00234284
0.00248016
0.00266642
0.00294159
0.00320914
0.00341639
0.00362487
0.00389777
0.0042383
0.00458865
0.00488714
0.00515617
0.00545886
0.00578929
0.00608526
0.00633208
0.00657384
0.00683717
0.00711241
0.00740266
0.00772955
0.00808742
0.00844305
0.00879428
0.00915962
0.00952539
0.00985057
0.0101436
0.0104607
0.0108131
0.0111648
0.0115177
0.0119134
0.0123426
0.0127478
0.0131455
0.0135728
0.0139872
0.0143858
0.0148122
0.0152528
0.0156929
0.0161503
0.016621
0.0171013
0.0175902
0.0180845
0.0185852
0.0190949
0.0196149
0.0201501
0.0206961
0.021246
0.0218069
0.022383
0.0229748
0.0235777
0.0241908
0.0248106
0.0254456
0.0260948
0.0267635
0.0274416
0.0281346
0.0288362
0.0295563
0.030287
0.0310368
0.0317968
0.0325751
0.0333599
0.0341639
0.034976
0.0358089
0.0366486
0.0374989
0.0383627
0.0392158
0.0400821
0.0409214
0.0416218
0.0423497
0.00734712
0.00554537
0.00217751
-0.00143077
-0.00361843
-0.00386327
-0.0029651
-0.00184191
-0.000909507
-0.000196836
0.000346164
0.000669839
0.000811168
0.000970774
0.00127037
0.00162861
0.00193088
0.00216683
0.00234953
0.00249229
0.00268095
0.00295318
0.00321739
0.00342508
0.00363572
0.00390827
0.00424528
0.00459247
0.00489074
0.00516072
0.00546262
0.00579114
0.00608673
0.00633504
0.00657805
0.00684134
0.00711613
0.00740619
0.00773255
0.00808931
0.00844412
0.00879519
0.00916042
0.00952602
0.00985164
0.0101455
0.0104628
0.0108147
0.0111663
0.0115192
0.0119144
0.0123432
0.0127485
0.0131464
0.0135736
0.013988
0.0143867
0.0148131
0.0152536
0.0156936
0.016151
0.0166216
0.0171018
0.0175908
0.0180851
0.0185858
0.0190954
0.0196154
0.0201507
0.0206966
0.0212465
0.0218073
0.0223834
0.0229752
0.0235781