/*--------------------------------*- C++ -*----------------------------------*\
| =========                 |                                                 |
| \\      /  F ield         | OpenFOAM: The Open Source CFD Toolbox           |
|  \\    /   O peration     | Version:  3.0.1                                 |
|   \\  /    A nd           | Web:      www.OpenFOAM.org                      |
|    \\/     M anipulation  |                                                 |
\*---------------------------------------------------------------------------*/
FoamFile
{
    version     2.0;
    format      ascii;
    class       surfaceScalarField;
    location    "3.5";
    object      phi;
}
// * * * * * * * * * * * * * * * * * * * * * * * * * * * * * * * * * * * * * //

dimensions      [0 3 -1 0 0 0 0];

internalField   nonuniform List<scalar> 
19000
(
1.17765e-06
-4.19782e-07
1.19281e-06
5.24222e-07
1.13954e-06
5.11659e-07
1.11034e-06
-1.45112e-07
1.19315e-06
-1.22339e-06
1.25185e-06
-9.04405e-07
1.21444e-06
-8.45267e-08
1.18699e-06
6.80732e-07
1.16375e-06
7.96628e-07
1.12445e-06
7.38902e-08
1.1458e-06
8.40593e-08
1.11892e-06
-6.72232e-07
1.15071e-06
-4.37158e-07
1.13434e-06
-5.4151e-07
1.16338e-06
-5.10321e-07
1.16554e-06
-3.77295e-07
1.17625e-06
-3.74098e-07
1.17743e-06
-1.45545e-07
1.1769e-06
-4.65265e-08
9.22807e-08
1.15005e-06
1.23464e-06
-4.30164e-07
1.25557e-06
5.03292e-07
1.19561e-06
5.71621e-07
1.16795e-06
-1.17454e-07
1.249e-06
-1.30443e-06
1.30587e-06
-9.61275e-07
1.26945e-06
-4.81141e-08
1.24887e-06
7.01316e-07
1.21744e-06
8.28058e-07
1.18944e-06
1.01887e-07
1.19935e-06
7.41565e-08
1.18203e-06
-6.54919e-07
1.20109e-06
-4.56217e-07
1.19835e-06
-5.38771e-07
1.21426e-06
-5.26223e-07
1.23259e-06
-3.95627e-07
1.22555e-06
-3.6706e-07
1.24778e-06
-1.67772e-07
1.21972e-06
-1.84747e-08
7.92777e-08
1.23273e-06
1.29229e-06
-4.39672e-07
1.32089e-06
4.74697e-07
1.25805e-06
6.34454e-07
1.23098e-06
-9.03828e-08
1.30216e-06
-1.37561e-06
1.35968e-06
-1.01879e-06
1.32704e-06
-1.54742e-08
1.30977e-06
7.18588e-07
1.27859e-06
8.59242e-07
1.26015e-06
1.20326e-07
1.26297e-06
7.1332e-08
1.25366e-06
-6.45612e-07
1.25996e-06
-4.62512e-07
1.26722e-06
-5.46036e-07
1.27172e-06
-5.30718e-07
1.29406e-06
-4.17974e-07
1.28517e-06
-3.5817e-07
1.30021e-06
-1.8281e-07
1.28763e-06
-5.89065e-09
9.08002e-08
1.27611e-06
1.35051e-06
-4.46074e-07
1.38401e-06
4.41192e-07
1.32533e-06
6.93136e-07
1.29892e-06
-6.39805e-08
1.35318e-06
-1.42986e-06
1.41093e-06
-1.07655e-06
1.38723e-06
8.22459e-09
1.37034e-06
7.35479e-07
1.34645e-06
8.83137e-07
1.33382e-06
1.32953e-07
1.33292e-06
7.22354e-08
1.32567e-06
-6.38369e-07
1.32484e-06
-4.61675e-07
1.33329e-06
-5.54493e-07
1.33408e-06
-5.31502e-07
1.3518e-06
-4.35692e-07
1.34945e-06
-3.55825e-07
1.35617e-06
-1.89534e-07
1.35393e-06
-3.64489e-09
1.05547e-07
1.33918e-06
1.41024e-06
-4.47958e-07
1.44363e-06
4.07805e-07
1.3967e-06
7.40067e-07
1.37121e-06
-3.84957e-08
1.40495e-06
-1.4636e-06
1.45972e-06
-1.13132e-06
1.44998e-06
1.79659e-08
1.43399e-06
7.51464e-07
1.41953e-06
8.976e-07
1.41025e-06
1.42235e-07
1.40748e-06
7.50003e-08
1.39842e-06
-6.29311e-07
1.39366e-06
-4.56916e-07
1.39927e-06
-5.60101e-07
1.39872e-06
-5.30953e-07
1.41138e-06
-4.48344e-07
1.41265e-06
-3.57095e-07
1.41723e-06
-1.94118e-07
1.41793e-06
-4.34987e-09
1.16541e-07
1.40694e-06
1.47298e-06
-4.45261e-07
1.50189e-06
3.7889e-07
1.47175e-06
7.70213e-07
1.44795e-06
-1.46939e-08
1.46132e-06
-1.47697e-06
1.50872e-06
-1.17872e-06
1.51394e-06
1.27509e-08
1.50272e-06
7.6268e-07
1.4966e-06
9.03724e-07
1.48939e-06
1.4944e-07
1.48525e-06
7.91459e-08
1.47319e-06
-6.17255e-07
1.46539e-06
-4.49111e-07
1.46747e-06
-5.62184e-07
1.46536e-06
-5.2885e-07
1.47393e-06
-4.56912e-07
1.47574e-06
-3.58901e-07
1.47948e-06
-1.97862e-07
1.48218e-06
-7.04633e-09
1.2463e-07
1.47409e-06
1.54e-06
-4.39048e-07
1.56256e-06
3.56332e-07
1.54995e-06
7.8283e-07
1.52911e-06
6.14362e-09
1.52487e-06
-1.47274e-06
1.56121e-06
-1.21507e-06
1.57814e-06
-4.16988e-09
1.57562e-06
7.652e-07
1.57635e-06
9.02992e-07
1.57054e-06
1.55252e-07
1.56521e-06
8.44727e-08
1.55033e-06
-6.02376e-07
1.54006e-06
-4.38838e-07
1.53873e-06
-5.60857e-07
1.53491e-06
-5.25026e-07
1.53968e-06
-4.61681e-07
1.541e-06
-3.60222e-07
1.54295e-06
-1.99816e-07
1.54731e-06
-1.14079e-08
1.30686e-07
1.54126e-06
1.61185e-06
-4.30774e-07
1.62872e-06
3.39462e-07
1.63076e-06
7.80799e-07
1.61402e-06
2.28775e-08
1.59608e-06
-1.4548e-06
1.61948e-06
-1.23846e-06
1.64299e-06
-2.76851e-08
1.65075e-06
7.57441e-07
1.65736e-06
8.96383e-07
1.65271e-06
1.59906e-07
1.64668e-06
9.05026e-08
1.62967e-06
-5.85368e-07
1.61786e-06
-4.27027e-07
1.61332e-06
-5.56324e-07
1.608e-06
-5.19698e-07
1.60895e-06
-4.62633e-07
1.60958e-06
-3.60855e-07
1.60914e-06
-1.99372e-07
1.61436e-06
-1.66351e-08
1.35062e-07
1.60999e-06
1.68841e-06
-4.21613e-07
1.7016e-06
3.26272e-07
1.71381e-06
7.68589e-07
1.70163e-06
3.50583e-08
1.67407e-06
-1.42724e-06
1.68456e-06
-1.24895e-06
1.70995e-06
-5.30732e-08
1.72703e-06
7.40362e-07
1.73869e-06
8.84723e-07
1.7353e-06
1.63296e-07
1.72934e-06
9.64558e-08
1.71107e-06
-5.67096e-07
1.69883e-06
-4.14785e-07
1.69141e-06
-5.48908e-07
1.68496e-06
-5.13242e-07
1.68212e-06
-4.59794e-07
1.68199e-06
-3.60723e-07
1.67917e-06
-1.96558e-07
1.68458e-06
-2.20408e-08
1.3783e-07
1.68181e-06
1.76934e-06
-4.12228e-07
1.78074e-06
3.14865e-07
1.79894e-06
7.50393e-07
1.7911e-06
4.28967e-08
1.7576e-06
-1.39373e-06
1.75673e-06
-1.24808e-06
1.78063e-06
-7.69762e-08
1.80459e-06
7.16403e-07
1.82035e-06
8.68961e-07
1.81844e-06
1.65207e-07
1.81339e-06
1.01506e-07
1.79466e-06
-5.48362e-07
1.783e-06
-4.03125e-07
1.77314e-06
-5.39055e-07
1.766e-06
-5.06097e-07
1.75953e-06
-4.53327e-07
1.75854e-06
-3.59733e-07
1.75371e-06
-1.91723e-07
1.75884e-06
-2.71727e-08
1.38796e-07
1.75787e-06
1.85442e-06
-4.02899e-07
1.86506e-06
3.04223e-07
1.88621e-06
7.29246e-07
1.8822e-06
4.69101e-08
1.8457e-06
-1.35723e-06
1.83581e-06
-1.2382e-06
1.8563e-06
-9.74665e-08
1.88437e-06
6.88333e-07
1.90325e-06
8.5009e-07
1.90293e-06
1.65518e-07
1.89942e-06
1.05019e-07
1.88079e-06
-5.29727e-07
1.87044e-06
-3.92783e-07
1.85865e-06
-5.27261e-07
1.85128e-06
-4.98727e-07
1.84152e-06
-4.43569e-07
1.83956e-06
-3.5777e-07
1.83317e-06
-1.85337e-07
1.83757e-06
-3.15724e-08
1.37626e-07
1.83874e-06
1.94365e-06
-3.93713e-07
1.95375e-06
2.94129e-07
1.97602e-06
7.06971e-07
1.97528e-06
4.76498e-08
1.93784e-06
-1.31979e-06
1.9214e-06
-1.22176e-06
1.9377e-06
-1.13758e-07
1.96752e-06
6.58511e-07
1.98863e-06
8.28975e-07
1.98987e-06
1.64284e-07
1.98826e-06
1.06629e-07
1.96998e-06
-5.11447e-07
1.96134e-06
-3.84144e-07
1.94804e-06
-5.1396e-07
1.94087e-06
-4.91559e-07
1.92834e-06
-4.31043e-07
1.92527e-06
-3.547e-07
1.91786e-06
-1.77924e-07
1.92091e-06
-3.46222e-08
1.34099e-07
1.92444e-06
2.03715e-06
-3.84678e-07
2.04659e-06
2.84698e-07
2.06906e-06
6.84495e-07
2.07107e-06
4.56359e-08
2.03384e-06
-1.28255e-06
2.01298e-06
-1.2009e-06
2.02505e-06
-1.25831e-07
2.05497e-06
6.2859e-07
2.0777e-06
8.06246e-07
2.08029e-06
1.61695e-07
2.08072e-06
1.062e-07
2.06281e-06
-4.93542e-07
2.05594e-06
-3.77276e-07
2.04145e-06
-4.99465e-07
2.03478e-06
-4.84893e-07
2.02016e-06
-4.16421e-07
2.01583e-06
-3.50367e-07
2.00793e-06
-1.70027e-07
2.009e-06
-3.56941e-08
1.2835e-07
2.01475e-06
2.13508e-06
-3.75759e-07
2.14378e-06
2.75999e-07
2.16608e-06
6.62198e-07
2.17034e-06
4.13793e-08
2.13376e-06
-1.24597e-06
2.11005e-06
-1.17719e-06
2.1183e-06
-1.34089e-07
2.14737e-06
5.99521e-07
2.17133e-06
7.82287e-07
2.17502e-06
1.58005e-07
2.17748e-06
1.03745e-07
2.15982e-06
-4.75887e-07
2.15459e-06
-3.72047e-07
2.13909e-06
-4.8396e-07
2.13302e-06
-4.78827e-07
2.11704e-06
-4.00433e-07
2.11125e-06
-3.44581e-07
2.10343e-06
-1.6221e-07
2.10213e-06
-3.43872e-08
1.20954e-07
2.10952e-06
2.23762e-06
-3.66894e-07
2.24569e-06
2.67931e-07
2.26771e-06
6.40178e-07
2.27371e-06
3.53836e-08
2.2378e-06
-1.21007e-06
2.21229e-06
-1.15167e-06
2.21732e-06
-1.39124e-07
2.24514e-06
5.71705e-07
2.27015e-06
7.57276e-07
2.27468e-06
1.53477e-07
2.27905e-06
9.93662e-08
2.26146e-06
-4.58297e-07
2.25764e-06
-3.68224e-07
2.24125e-06
-4.67569e-07
2.23567e-06
-4.7325e-07
2.21903e-06
-3.83788e-07
2.21156e-06
-3.37112e-07
2.20435e-06
-1.55001e-07
2.20069e-06
-3.07241e-08
1.12807e-07
2.20883e-06
2.34499e-06
-3.58012e-07
2.35265e-06
2.60275e-07
2.37441e-06
6.18415e-07
2.38168e-06
2.81156e-08
2.34624e-06
-1.17462e-06
2.31957e-06
-1.125e-06
2.32203e-06
-1.41592e-07
2.34857e-06
5.45173e-07
2.37458e-06
7.31263e-07
2.37968e-06
1.48371e-07
2.38583e-06
9.32253e-08
2.36811e-06
-4.40583e-07
2.36542e-06
-3.6553e-07
2.34826e-06
-4.50414e-07
2.34288e-06
-4.67866e-07
2.32623e-06
-3.67137e-07
2.31684e-06
-3.27724e-07
2.31065e-06
-1.48814e-07
2.30499e-06
-2.50664e-08
1.04819e-07
2.31298e-06
2.45744e-06
-3.49052e-07
2.46493e-06
2.52784e-07
2.48649e-06
5.96853e-07
2.49463e-06
1.99725e-08
2.45939e-06
-1.13938e-06
2.43194e-06
-1.09755e-06
2.43252e-06
-1.42168e-07
2.45794e-06
5.19745e-07
2.48496e-06
7.04243e-07
2.49038e-06
1.42958e-07
2.49807e-06
8.55341e-08
2.48008e-06
-4.22592e-07
2.47821e-06
-3.63661e-07
2.46046e-06
-4.32663e-07
2.45486e-06
-4.62273e-07
2.43876e-06
-3.51032e-07
2.4273e-06
-3.1627e-07
2.42233e-06
-1.43842e-07
2.4153e-06
-1.80364e-08
9.77253e-08
2.42239e-06
2.57522e-06
-3.39974e-07
2.58275e-06
2.45255e-07
2.60417e-06
5.75425e-07
2.61288e-06
1.12648e-08
2.5776e-06
-1.1041e-06
2.54959e-06
-1.06954e-06
2.54892e-06
-1.41502e-07
2.5735e-06
4.95169e-07
2.60153e-06
6.76214e-07
2.60698e-06
1.375e-07
2.61598e-06
7.65436e-08
2.59763e-06
-4.04245e-07
2.59626e-06
-3.6229e-07
2.57815e-06
-4.14557e-07
2.57188e-06
-4.56003e-07
2.55679e-06
-3.3594e-07
2.54328e-06
-3.0276e-07
2.53942e-06
-1.39982e-07
2.53183e-06
-1.04488e-08
9.2026e-08
2.53753e-06
2.69861e-06
-3.30759e-07
2.70631e-06
2.37557e-07
2.72767e-06
5.54069e-07
2.73671e-06
2.22284e-09
2.70126e-06
-1.06866e-06
2.67277e-06
-1.04104e-06
2.67144e-06
-1.40172e-07
2.69539e-06
4.71216e-07
2.72441e-06
6.47198e-07
2.72969e-06
1.32221e-07
2.7397e-06
6.65313e-08
2.72102e-06
-3.85572e-07
2.71981e-06
-3.61072e-07
2.70165e-06
-3.96397e-07
2.69423e-06
-4.48592e-07
2.68049e-06
-3.22193e-07
2.66516e-06
-2.8743e-07
2.66201e-06
-1.3683e-07
2.65477e-06
-3.21701e-09
8.79798e-08
2.65882e-06
2.82792e-06
-3.21406e-07
2.83584e-06
2.29633e-07
2.85719e-06
5.32722e-07
2.86639e-06
-6.98113e-09
2.83073e-06
-1.03299e-06
2.80177e-06
-1.01208e-06
2.80024e-06
-1.38637e-07
2.82371e-06
4.47742e-07
2.85366e-06
6.17247e-07
2.85863e-06
1.27259e-07
2.86937e-06
5.57925e-08
2.85051e-06
-3.66718e-07
2.84909e-06
-3.59653e-07
2.83121e-06
-3.78513e-07
2.82226e-06
-4.39646e-07
2.81003e-06
-3.0996e-07
2.79329e-06
-2.70691e-07
2.79035e-06
-1.33891e-07
2.78421e-06
2.92858e-09
8.55666e-08
2.78662e-06
2.96342e-06
-3.11929e-07
2.97157e-06
2.21485e-07
2.99297e-06
5.11317e-07
3.00219e-06
-1.6206e-08
2.96636e-06
-9.97162e-07
2.93692e-06
-9.82645e-07
2.93552e-06
-1.37228e-07
2.95857e-06
4.2469e-07
2.98937e-06
5.86445e-07
2.99398e-06
1.22652e-07
3.00514e-06
4.46291e-08
2.98634e-06
-3.4792e-07
2.98439e-06
-3.57697e-07
2.96709e-06
-3.61215e-07
2.95634e-06
-4.28899e-07
2.9456e-06
-2.99225e-07
2.92798e-06
-2.53066e-07
2.92476e-06
-1.30672e-07
2.92019e-06
7.49876e-09
8.45549e-08
2.9212e-06
3.10542e-06
-3.02346e-07
3.11375e-06
2.13163e-07
3.13528e-06
4.89783e-07
3.1444e-06
-2.53216e-08
3.10851e-06
-9.61274e-07
3.07854e-06
-9.52679e-07
3.07748e-06
-1.36165e-07
3.1001e-06
4.02065e-07
3.13163e-06
5.54915e-07
3.13595e-06
1.18334e-07
3.14723e-06
3.33506e-08
3.12877e-06
-3.2946e-07
3.12598e-06
-3.54907e-07
3.10951e-06
-3.44747e-07
3.09687e-06
-4.16255e-07
3.08743e-06
-2.8979e-07
3.06949e-06
-2.35121e-07
3.06562e-06
-1.26801e-07
3.0628e-06
1.03122e-08
8.45517e-08
3.06281e-06
3.25425e-06
-2.92683e-07
3.26267e-06
2.04742e-07
3.28442e-06
4.68036e-07
3.29329e-06
-3.41991e-08
3.25749e-06
-9.25474e-07
3.22696e-06
-9.22146e-07
3.22637e-06
-1.35575e-07
3.24855e-06
3.79883e-07
3.28065e-06
5.22817e-07
3.28482e-06
1.14163e-07
3.29591e-06
2.22564e-08
3.27807e-06
-3.11611e-07
3.27422e-06
-3.51061e-07
3.25871e-06
-3.29242e-07
3.24425e-06
-4.0179e-07
3.2358e-06
-2.8134e-07
3.21806e-06
-2.17382e-07
3.2133e-06
-1.22037e-07
3.21218e-06
1.14231e-08
8.50877e-08
3.21165e-06
3.41021e-06
-2.82966e-07
3.41864e-06
1.96317e-07
3.44069e-06
4.45986e-07
3.4492e-06
-4.27126e-08
3.41365e-06
-8.89919e-07
3.38253e-06
-8.91027e-07
3.38247e-06
-1.35516e-07
3.40421e-06
3.58139e-07
3.43667e-06
4.90356e-07
3.44089e-06
1.09952e-07
3.45152e-06
1.16245e-08
3.4345e-06
-2.94595e-07
3.42947e-06
-3.46027e-07
3.41494e-06
-3.14718e-07
3.39885e-06
-3.85695e-07
3.39103e-06
-2.73524e-07
3.37392e-06
-2.00268e-07
3.36816e-06
-1.16275e-07
3.36855e-06
1.10282e-08
8.56862e-08
3.36795e-06
3.57367e-06
-2.73222e-07
3.58199e-06
1.8799e-07
3.60444e-06
4.23544e-07
3.61247e-06
-5.07503e-08
3.5773e-06
-8.54746e-07
3.54561e-06
-8.5934e-07
3.54608e-06
-1.35982e-07
3.56743e-06
3.36788e-07
3.60003e-06
4.57759e-07
3.60447e-06
1.05504e-07
3.61441e-06
1.69166e-09
3.59837e-06
-2.78553e-07
3.59211e-06
-3.39774e-07
3.57848e-06
-3.01082e-07
3.56102e-06
-3.68235e-07
3.55348e-06
-2.65988e-07
3.53735e-06
-1.84132e-07
3.53054e-06
-1.0947e-07
3.53218e-06
9.38603e-09
8.58829e-08
3.53199e-06
3.74496e-06
-2.63473e-07
3.75309e-06
1.7986e-07
3.776e-06
4.00634e-07
3.78348e-06
-5.82287e-08
3.74879e-06
-8.20058e-07
3.7166e-06
-8.27156e-07
3.71752e-06
-1.369e-07
3.73857e-06
3.15737e-07
3.77106e-06
4.2527e-07
3.77593e-06
1.00641e-07
3.78498e-06
-7.36646e-09
3.76997e-06
-2.63542e-07
3.76255e-06
-3.32353e-07
3.74965e-06
-2.88181e-07
3.73111e-06
-3.49698e-07
3.72356e-06
-2.58435e-07
3.70868e-06
-1.69252e-07
3.70082e-06
-1.01611e-07
3.70334e-06
6.86246e-09
8.52081e-08
3.70402e-06
3.92446e-06
-2.53744e-07
3.93231e-06
1.7201e-07
3.95572e-06
3.77218e-07
3.96261e-06
-6.51099e-08
3.92845e-06
-7.85905e-07
3.89592e-06
-7.94619e-07
3.89715e-06
-1.38137e-07
3.91802e-06
2.94868e-07
3.95017e-06
3.93122e-07
3.95558e-06
9.52346e-08
3.96366e-06
-1.5453e-08
3.94965e-06
-2.49528e-07
3.94117e-06
-3.23877e-07
3.92885e-06
-2.75862e-07
3.90951e-06
-3.30353e-07
3.90169e-06
-2.50614e-07
3.88828e-06
-1.55846e-07
3.87945e-06
-9.27773e-08
3.88232e-06
3.99353e-09
8.32111e-08
3.88431e-06
4.11256e-06
-2.44053e-07
4.12007e-06
1.64497e-07
4.14398e-06
3.5331e-07
4.15028e-06
-7.14109e-08
4.11665e-06
-7.52278e-07
4.08397e-06
-7.61936e-07
4.08535e-06
-1.39515e-07
4.10615e-06
2.74065e-07
4.13776e-06
3.61518e-07
4.14377e-06
8.92161e-08
4.15086e-06
-2.25377e-08
4.13776e-06
-2.36431e-07
4.12835e-06
-3.14466e-07
4.11651e-06
-2.64018e-07
4.09662e-06
-3.1047e-07
4.08827e-06
-2.42262e-07
4.07648e-06
-1.44049e-07
4.06693e-06
-8.32351e-08
4.06947e-06
1.45832e-09
7.96187e-08
4.07306e-06
4.30966e-06
-2.34412e-07
4.31681e-06
1.57345e-07
4.34113e-06
3.28989e-07
4.34694e-06
-7.72162e-08
4.31377e-06
-7.19105e-07
4.28121e-06
-7.29377e-07
4.28252e-06
-1.40826e-07
4.30335e-06
2.53231e-07
4.33426e-06
3.30612e-07
4.3409e-06
8.25797e-08
4.347e-06
-2.86427e-08
4.33471e-06
-2.24142e-07
4.3245e-06
-3.04252e-07
4.31306e-06
-2.5258e-07
4.29287e-06
-2.90282e-07
4.28381e-06
-2.33195e-07
4.27359e-06
-1.33831e-07
4.26377e-06
-7.34225e-08
4.26534e-06
-1.04021e-10
7.44944e-08
4.27046e-06
4.51619e-06
-2.24829e-07
4.523e-06
1.50532e-07
4.54757e-06
3.04426e-07
4.55304e-06
-8.26902e-08
4.52019e-06
-6.86251e-07
4.48807e-06
-6.97263e-07
4.48912e-06
-1.41875e-07
4.51002e-06
2.32336e-07
4.54014e-06
3.00485e-07
4.54734e-06
7.53832e-08
4.55252e-06
-3.38201e-08
4.54092e-06
-2.12544e-07
4.53004e-06
-2.93369e-07
4.51893e-06
-2.41478e-07
4.4987e-06
-2.70044e-07
4.4888e-06
-2.23298e-07
4.47997e-06
-1.24996e-07
4.47039e-06
-6.38455e-08
4.47063e-06
-3.42424e-10
6.83455e-08
4.47678e-06
4.73258e-06
-2.15299e-07
4.73913e-06
1.43985e-07
4.76368e-06
2.7988e-07
4.76905e-06
-8.80641e-08
4.73635e-06
-6.53552e-07
4.70499e-06
-6.65906e-07
4.70565e-06
-1.42533e-07
4.72652e-06
2.1147e-07
4.75588e-06
2.71127e-07
4.76356e-06
6.77015e-08
4.76786e-06
-3.8119e-08
4.75683e-06
-2.01513e-07
4.74543e-06
-2.81976e-07
4.73457e-06
-2.30613e-07
4.71453e-06
-2.50003e-07
4.7038e-06
-2.12568e-07
4.69606e-06
-1.1726e-07
4.68711e-06
-5.48981e-08
4.68608e-06
6.91782e-10
6.19703e-08
4.69245e-06
4.9593e-06
-2.05805e-07
4.9657e-06
1.37586e-07
4.98988e-06
2.55702e-07
4.99545e-06
-9.36282e-08
4.96274e-06
-6.2085e-07
4.93241e-06
-6.35572e-07
4.93265e-06
-1.42768e-07
4.95325e-06
1.90861e-07
4.98191e-06
2.42472e-07
4.99003e-06
5.95775e-08
4.99349e-06
-4.15719e-08
4.9829e-06
-1.90925e-07
4.97114e-06
-2.7022e-07
4.96046e-06
-2.19929e-07
4.94079e-06
-2.30331e-07
4.92927e-06
-2.01055e-07
4.92241e-06
-1.10395e-07
4.91427e-06
-4.6762e-08
4.91232e-06
2.64918e-09
5.61328e-08
4.91815e-06
5.19683e-06
-1.96317e-07
5.20325e-06
1.31164e-07
5.22662e-06
2.32336e-07
5.2327e-06
-9.97139e-08
5.19991e-06
-5.88061e-07
5.17072e-06
-6.06383e-07
5.17068e-06
-1.42724e-07
5.1907e-06
1.70842e-07
5.2187e-06
2.14473e-07
5.22727e-06
5.10024e-08
5.22992e-06
-4.4216e-08
5.21962e-06
-1.80628e-07
5.20764e-06
-2.58241e-07
5.19712e-06
-2.09409e-07
5.17792e-06
-2.11133e-07
5.16574e-06
-1.88873e-07
5.15957e-06
-1.04223e-07
5.15229e-06
-3.94872e-08
5.14977e-06
5.16776e-09
5.12425e-08
5.15466e-06
5.44567e-06
-1.86795e-07
5.45233e-06
1.24505e-07
5.47436e-06
2.10305e-07
5.48129e-06
-1.06643e-07
5.44845e-06
-5.55227e-07
5.42035e-06
-5.78279e-07
5.4204e-06
-1.42776e-07
5.43946e-06
1.51781e-07
5.46669e-06
1.87242e-07
5.47579e-06
4.19074e-08
5.47766e-06
-4.60842e-08
5.46752e-06
-1.70496e-07
5.4554e-06
-2.46117e-07
5.44508e-06
-1.99086e-07
5.42642e-06
-1.92475e-07
5.41366e-06
-1.76113e-07
5.40808e-06
-9.86491e-08
5.40169e-06
-3.30879e-08
5.39886e-06
7.99272e-09
4.73861e-08
5.40272e-06
5.70635e-06
-1.77188e-07
5.71349e-06
1.17362e-07
5.7336e-06
1.90198e-07
5.74163e-06
-1.14669e-07
5.70899e-06
-5.22589e-07
5.68167e-06
-5.50965e-07
5.68245e-06
-1.43547e-07
5.7003e-06
1.33931e-07
5.72643e-06
1.61107e-07
5.73607e-06
3.22692e-08
5.73723e-06
-4.72411e-08
5.72715e-06
-1.60417e-07
5.71489e-06
-2.33866e-07
5.70481e-06
-1.89004e-07
5.68684e-06
-1.74498e-07
5.67354e-06
-1.62813e-07
5.66848e-06
-9.35893e-08
5.66303e-06
-2.76377e-08
5.66001e-06
1.10117e-08
4.44474e-08
5.66295e-06
5.97945e-06
-1.67446e-07
5.98734e-06
1.09468e-07
6.0049e-06
1.72641e-07
6.01412e-06
-1.23888e-07
5.98219e-06
-4.90659e-07
5.95516e-06
-5.23938e-07
5.95722e-06
-1.45603e-07
5.97404e-06
1.17107e-07
5.99855e-06
1.36603e-07
6.00859e-06
2.22285e-08
6.00915e-06
-4.78021e-08
5.99901e-06
-1.50276e-07
5.9866e-06
-2.21451e-07
5.97683e-06
-1.79237e-07
5.95972e-06
-1.57395e-07
5.94598e-06
-1.49071e-07
5.94124e-06
-8.88484e-08
5.93688e-06
-2.32731e-08
5.93375e-06
1.41375e-08
4.23072e-08
5.93589e-06
6.26557e-06
-1.57529e-07
6.27446e-06
1.00584e-07
6.28916e-06
1.57941e-07
6.29915e-06
-1.3388e-07
6.26872e-06
-4.60228e-07
6.24136e-06
-4.96587e-07
6.24496e-06
-1.49197e-07
6.26129e-06
1.00775e-07
6.28358e-06
1.14314e-07
6.29365e-06
1.21573e-08
6.29381e-06
-4.79596e-08
6.28357e-06
-1.40042e-07
6.27099e-06
-2.08873e-07
6.2616e-06
-1.69846e-07
6.24564e-06
-1.41435e-07
6.23162e-06
-1.35045e-07
6.22694e-06
-8.41707e-08
6.22377e-06
-2.01071e-08
6.22073e-06
1.71794e-08
4.09352e-08
6.2221e-06
6.56537e-06
-1.47425e-07
6.5754e-06
9.05467e-08
6.58764e-06
1.45703e-07
6.59719e-06
-1.43427e-07
6.56913e-06
-4.32173e-07
6.541e-06
-4.68452e-07
6.54552e-06
-1.53717e-07
6.56162e-06
8.46763e-08
6.58128e-06
9.46518e-08
6.59115e-06
2.28734e-09
6.59143e-06
-4.82369e-08
6.58131e-06
-1.29924e-07
6.56864e-06
-1.96202e-07
6.55971e-06
-1.60917e-07
6.54514e-06
-1.26867e-07
6.5311e-06
-1.21008e-07
6.52616e-06
-7.92282e-08
6.52427e-06
-1.82119e-08
6.52157e-06
1.98732e-08
4.03061e-08
6.5222e-06
6.87952e-06
-1.37156e-07
6.89079e-06
7.9278e-08
6.90111e-06
1.35388e-07
6.90892e-06
-1.51242e-07
6.88393e-06
-4.07183e-07
6.85499e-06
-4.39508e-07
6.8591e-06
-1.57827e-07
6.87491e-06
6.8867e-08
6.89229e-06
7.7269e-08
6.90177e-06
-7.1914e-09
6.90259e-06
-4.9058e-08
6.89291e-06
-1.20242e-07
6.88025e-06
-1.83545e-07
6.87182e-06
-1.52484e-07
6.85884e-06
-1.13894e-07
6.84502e-06
-1.0718e-07
6.83969e-06
-7.39041e-08
6.83883e-06
-1.73493e-08
6.83684e-06
2.18664e-08
4.03099e-08
6.83683e-06
7.20875e-06
-1.26773e-07
7.22123e-06
6.68019e-08
7.23012e-06
1.26498e-07
7.23534e-06
-1.56466e-07
7.21354e-06
-3.85379e-07
7.1843e-06
-4.10272e-07
7.18757e-06
-1.61096e-07
7.20358e-06
5.2861e-08
7.21867e-06
6.21738e-08
7.22704e-06
-1.55606e-08
7.22832e-06
-5.03375e-08
7.21928e-06
-1.11203e-07
7.20668e-06
-1.7094e-07
7.1987e-06
-1.44503e-07
7.18736e-06
-1.02555e-07
7.17406e-06
-9.38803e-08
7.16823e-06
-6.80794e-08
7.16807e-06
-1.71888e-08
7.16705e-06
2.289e-08
4.06929e-08
7.16667e-06
7.55381e-06
-1.16359e-07
7.56738e-06
5.32307e-08
7.57534e-06
1.18537e-07
7.57761e-06
-1.58733e-07
7.5586e-06
-3.66371e-07
7.53021e-06
-3.81878e-07
7.53186e-06
-1.62744e-07
7.5484e-06
3.63219e-08
7.56152e-06
4.90548e-08
7.56806e-06
-2.21031e-08
7.56957e-06
-5.18482e-08
7.56135e-06
-1.02981e-07
7.54883e-06
-1.58424e-07
7.54118e-06
-1.36847e-07
7.53143e-06
-9.28123e-08
7.51889e-06
-8.13409e-08
7.51255e-06
-6.17417e-08
7.51273e-06
-1.73628e-08
7.51276e-06
2.28586e-08
4.10953e-08
7.51236e-06
7.9155e-06
-1.06045e-07
7.92981e-06
3.89143e-08
7.93768e-06
1.10672e-07
7.93669e-06
-1.57747e-07
7.9204e-06
-3.50078e-07
7.89434e-06
-3.55822e-07
7.89501e-06
-1.63411e-07
7.91151e-06
1.98191e-08
7.92136e-06
3.92095e-08
7.92568e-06
-2.64257e-08
7.92724e-06
-5.34042e-08
7.91993e-06
-9.56759e-08
7.90763e-06
-1.46117e-07
7.90011e-06
-1.29327e-07
7.89182e-06
-8.45243e-08
7.88027e-06
-6.97957e-08
7.87348e-06
-5.49465e-08
7.8736e-06
-1.74822e-08
7.8746e-06
2.18547e-08
4.11418e-08
7.87455e-06
8.29463e-06
-9.59949e-08
8.3091e-06
2.44414e-08
8.31835e-06
1.01429e-07
8.31412e-06
-1.5352e-07
8.30028e-06
-3.36236e-07
8.27743e-06
-3.32978e-07
8.27672e-06
-1.62697e-07
8.28949e-06
7.04873e-09
8.29773e-06
3.097e-08
8.30103e-06
-2.97277e-08
8.30238e-06
-5.47578e-08
8.29582e-06
-8.91169e-08
8.28388e-06
-1.34173e-07
8.2763e-06
-1.21747e-07
8.26929e-06
-7.75122e-08
8.25895e-06
-5.94583e-08
8.25179e-06
-4.77863e-08
8.25159e-06
-1.7284e-08
8.25334e-06
2.01084e-08
4.05689e-08
8.25391e-06
8.69206e-06
-8.63948e-08
8.70618e-06
1.03273e-08
8.71761e-06
8.99912e-08
8.71183e-06
-1.47738e-07
8.69647e-06
-3.20876e-07
8.67013e-06
-3.06635e-07
8.66388e-06
-1.56448e-07
8.67911e-06
-8.17629e-09
8.69167e-06
1.84076e-08
8.69512e-06
-3.3179e-08
8.69586e-06
-5.54959e-08
8.68978e-06
-8.30422e-08
8.67825e-06
-1.22643e-07
8.67057e-06
-1.14067e-07
8.66462e-06
-7.15563e-08
8.65564e-06
-5.04798e-08
8.64834e-06
-4.04836e-08
8.64764e-06
-1.65881e-08
8.64987e-06
1.7881e-08
3.92747e-08
8.65116e-06
9.10864e-06
-7.74172e-08
9.12184e-06
-2.87467e-09
9.1348e-06
7.70298e-08
9.1242e-06
-1.37137e-07
9.10632e-06
-3.02991e-07
9.08562e-06
-2.85939e-07
9.07951e-06
-1.5034e-07
9.09243e-06
-2.10877e-08
9.10485e-06
5.98681e-09
9.10836e-06
-3.66948e-08
9.10854e-06
-5.56689e-08
9.10281e-06
-7.73148e-08
9.09176e-06
-1.11597e-07
9.08396e-06
-1.06263e-07
9.0788e-06
-6.63966e-08
9.07124e-06
-4.29256e-08
9.06405e-06
-3.32919e-08
9.06269e-06
-1.52283e-08
9.06512e-06
1.5454e-08
3.73047e-08
9.06709e-06
9.54529e-06
-6.92454e-08
9.55672e-06
-1.43063e-08
9.57125e-06
6.24972e-08
9.55938e-06
-1.25269e-07
9.54104e-06
-2.84644e-07
9.52255e-06
-2.67453e-07
9.51609e-06
-1.43876e-07
9.52629e-06
-3.12881e-08
9.53783e-06
-5.55468e-09
9.5414e-06
-4.02656e-08
9.54127e-06
-5.5542e-08
9.53587e-06
-7.19167e-08
9.5253e-06
-1.01019e-07
9.51744e-06
-9.84104e-08
9.51281e-06
-6.17673e-08
9.50662e-06
-3.67364e-08
9.49989e-06
-2.65562e-08
9.49776e-06
-1.31008e-08
9.5001e-06
1.31197e-08
3.47609e-08
9.50264e-06
1.00029e-05
-6.19888e-08
1.00122e-05
-2.36635e-08
1.00284e-05
4.63552e-08
1.00168e-05
-1.1371e-07
9.99691e-06
-2.64732e-07
9.98002e-06
-2.50567e-07
9.97377e-06
-1.37624e-07
9.98152e-06
-3.90386e-08
9.99156e-06
-1.55915e-08
9.99519e-06
-4.39035e-08
9.99501e-06
-5.53563e-08
9.98996e-06
-6.68672e-08
9.97984e-06
-9.08989e-08
9.97194e-06
-9.05143e-08
9.96764e-06
-5.74592e-08
9.96268e-06
-3.17794e-08
9.95666e-06
-2.0539e-08
9.95393e-06
-1.03694e-08
9.95585e-06
1.11972e-08
3.17945e-08
9.95882e-06
1.04824e-05
-5.57337e-08
1.04897e-05
-3.1025e-08
1.05067e-05
2.93607e-08
1.04964e-05
-1.03399e-07
1.04751e-05
-2.43369e-07
1.0459e-05
-2.34464e-07
1.04533e-05
-1.32002e-07
1.04591e-05
-4.4836e-08
1.04673e-05
-2.37702e-08
1.04707e-05
-4.72789e-08
1.04706e-05
-5.5294e-08
1.0466e-05
-6.22307e-08
1.04564e-05
-8.12937e-08
1.04485e-05
-8.26262e-08
1.04443e-05
-5.32972e-08
1.04404e-05
-2.78654e-08
1.04353e-05
-1.54142e-08
1.04322e-05
-7.31387e-09
1.04335e-05
9.90113e-09
2.86412e-08
1.04367e-05
1.09848e-05
-5.05179e-08
1.09902e-05
-3.63809e-08
1.10074e-05
1.21052e-08
1.0999e-05
-9.49843e-08
1.09763e-05
-2.20672e-07
1.09604e-05
-2.1856e-07
1.09556e-05
-1.27225e-07
1.09601e-05
-4.92848e-08
1.09663e-05
-3.0018e-08
1.0969e-05
-4.99989e-08
1.09691e-05
-5.53607e-08
1.0965e-05
-5.81585e-08
1.0956e-05
-7.23074e-08
1.09482e-05
-7.47647e-08
1.09441e-05
-4.92174e-08
1.09409e-05
-2.46822e-08
1.09368e-05
-1.12581e-08
1.09337e-05
-4.23305e-09
1.09343e-05
9.27382e-09
2.55839e-08
1.09374e-05
1.15111e-05
-4.63019e-08
1.15146e-05
-3.97986e-08
1.15314e-05
-4.75083e-09
1.1525e-05
-8.85505e-08
1.15014e-05
-1.97071e-07
1.14854e-05
-2.02567e-07
1.14816e-05
-1.23408e-07
1.14853e-05
-5.30562e-08
1.14898e-05
-3.44663e-08
1.14915e-05
-5.16829e-08
1.14915e-05
-5.5365e-08
1.14881e-05
-5.476e-08
1.14798e-05
-6.40398e-08
1.14721e-05
-6.70513e-08
1.1468e-05
-4.51532e-08
1.14654e-05
-2.19973e-08
1.14621e-05
-8.01397e-09
1.14593e-05
-1.41296e-09
1.14594e-05
9.21141e-09
2.28933e-08
1.1462e-05
1.20625e-05
-4.29547e-08
1.20641e-05
-4.13884e-08
1.20795e-05
-2.02287e-08
1.20748e-05
-8.38217e-08
1.20516e-05
-1.73814e-07
1.20354e-05
-1.86403e-07
1.20323e-05
-1.20299e-07
1.20358e-05
-5.66158e-08
1.20389e-05
-3.74836e-08
1.20393e-05
-5.21461e-08
1.2039e-05
-5.50505e-08
1.20362e-05
-5.20007e-08
1.20289e-05
-5.66716e-08
1.20214e-05
-5.95756e-08
1.20173e-05
-4.10704e-08
1.2015e-05
-1.96514e-08
1.20125e-05
-5.49909e-09
1.20101e-05
9.22992e-10
1.20098e-05
9.52988e-09
2.07351e-08
1.2012e-05
1.26399e-05
-4.02641e-08
1.26396e-05
-4.10541e-08
1.26521e-05
-3.27906e-08
1.26497e-05
-8.14136e-08
1.26284e-05
-1.52484e-07
1.2612e-05
-1.69965e-07
1.26089e-05
-1.17262e-07
1.26125e-05
-6.02421e-08
1.26147e-05
-3.95962e-08
1.26139e-05
-5.14263e-08
1.2613e-05
-5.40838e-08
1.26107e-05
-4.97233e-08
1.26043e-05
-5.03201e-08
1.25972e-05
-5.2471e-08
1.25931e-05
-3.69748e-08
1.25911e-05
-1.75739e-08
1.25891e-05
-3.54638e-09
1.25872e-05
2.81073e-09
1.25868e-05
9.95725e-09
1.90903e-08
1.25884e-05
1.32446e-05
-3.79695e-08
1.32423e-05
-3.87144e-08
1.32515e-05
-4.19488e-08
1.32518e-05
-8.17545e-08
1.32333e-05
-1.33982e-07
1.32166e-05
-1.53234e-07
1.32128e-05
-1.13525e-07
1.32165e-05
-6.38943e-08
1.32183e-05
-4.139e-08
1.32166e-05
-4.97209e-08
1.32148e-05
-5.22789e-08
1.32127e-05
-4.76793e-08
1.32074e-05
-4.49598e-08
1.32008e-05
-4.59238e-08
1.31967e-05
-3.29e-08
1.31948e-05
-1.56781e-08
1.31934e-05
-2.07652e-09
1.31919e-05
4.32503e-09
1.31915e-05
1.03514e-08
1.78201e-08
1.31927e-05
1.38781e-05
-3.58778e-08
1.38756e-05
-3.62905e-08
1.38809e-05
-4.72387e-08
1.38826e-05
-8.33864e-08
1.38673e-05
-1.18706e-07
1.38506e-05
-1.36513e-07
1.38456e-05
-1.08527e-07
1.38489e-05
-6.72003e-08
1.38507e-05
-4.32555e-08
1.38485e-05
-4.74769e-08
1.38458e-05
-4.96156e-08
1.38437e-05
-4.5565e-08
1.38392e-05
-4.04573e-08
1.38333e-05
-4.00471e-08
1.38294e-05
-2.90015e-08
1.38276e-05
-1.38395e-08
1.38265e-05
-1.00705e-09
1.38254e-05
5.47701e-09
1.3825e-05
1.07129e-08
1.67431e-08
1.38261e-05
1.45416e-05
-3.37997e-08
1.45392e-05
-3.38628e-08
1.45415e-05
-4.95461e-08
1.45433e-05
-8.52407e-08
1.45314e-05
-1.06745e-07
1.45153e-05
-1.20434e-07
1.45088e-05
-1.02076e-07
1.45112e-05
-6.95663e-08
1.45132e-05
-4.53089e-08
1.4511e-05
-4.5227e-08
1.45076e-05
-4.62371e-08
1.45051e-05
-4.30945e-08
1.45014e-05
-3.66743e-08
1.44962e-05
-3.48466e-08
1.44925e-05
-2.53571e-08
1.44908e-05
-1.20895e-08
1.449e-05
-2.07735e-10
1.44892e-05
6.24574e-09
1.44889e-05
1.10598e-08
1.57811e-08
1.44898e-05
1.52367e-05
-3.16267e-08
1.52351e-05
-3.22783e-08
1.52349e-05
-4.92766e-08
1.52356e-05
-8.60066e-08
1.52267e-05
-9.78036e-08
1.52119e-05
-1.05703e-07
1.52042e-05
-9.43003e-08
1.52051e-05
-7.04499e-08
1.52071e-05
-4.73892e-08
1.52053e-05
-4.33501e-08
1.52015e-05
-4.24741e-08
1.51986e-05
-4.0159e-08
1.51952e-05
-3.33356e-08
1.51907e-05
-3.03457e-08
1.51873e-05
-2.19458e-08
1.51858e-05
-1.05333e-08
1.51851e-05
4.36666e-10
1.51847e-05
6.66271e-09
1.51844e-05
1.13072e-08
1.49814e-08
1.51852e-05
1.5965e-05
-2.9313e-08
1.59643e-05
-3.15494e-08
1.59623e-05
-4.72694e-08
1.59612e-05
-8.49419e-08
1.59546e-05
-9.12271e-08
1.59419e-05
-9.29236e-08
1.59331e-05
-8.55763e-08
1.59323e-05
-6.96044e-08
1.59339e-05
-4.9048e-08
1.59326e-05
-4.1992e-08
1.59289e-05
-3.87518e-08
1.59255e-05
-3.68131e-08
1.59224e-05
-3.01925e-08
1.59185e-05
-2.64699e-08
1.59154e-05
-1.88504e-08
1.5914e-05
-9.08221e-09
1.59135e-05
9.10629e-10
1.59133e-05
6.83054e-09
1.59133e-05
1.13394e-08
1.43613e-08
1.59139e-05
1.67282e-05
-2.68706e-08
1.67277e-05
-3.1098e-08
1.67249e-05
-4.4464e-08
1.67219e-05
-8.19818e-08
1.67169e-05
-8.61545e-08
1.67063e-05
-8.23502e-08
1.66972e-05
-7.65255e-08
1.66947e-05
-6.70492e-08
1.66954e-05
-4.9776e-08
1.66945e-05
-4.108e-08
1.66912e-05
-3.53968e-08
1.66876e-05
-3.32447e-08
1.66845e-05
-2.71039e-08
1.66811e-05
-2.30615e-08
1.66784e-05
-1.61194e-08
1.6677e-05
-7.70643e-09
1.66766e-05
1.24799e-09
1.66767e-05
6.79724e-09
1.66769e-05
1.11469e-08
1.38099e-08
1.66774e-05
1.75279e-05
-2.4375e-08
1.75277e-05
-3.09287e-08
1.75245e-05
-4.12437e-08
1.75197e-05
-7.72365e-08
1.75151e-05
-8.15541e-08
1.75068e-05
-7.39758e-08
1.7498e-05
-6.77879e-08
1.7494e-05
-6.29975e-08
1.74934e-05
-4.92566e-08
1.74927e-05
-4.02861e-08
1.74898e-05
-3.2578e-08
1.74863e-05
-2.9731e-08
1.74832e-05
-2.40335e-08
1.74802e-05
-1.99929e-08
1.74777e-05
-1.36853e-08
1.74765e-05
-6.47975e-09
1.74762e-05
1.53811e-09
1.74764e-05
6.58556e-09
1.74768e-05
1.07706e-08
1.32061e-08
1.74774e-05
1.83659e-05
-2.19122e-08
1.83655e-05
-3.05864e-08
1.83624e-05
-3.81249e-08
1.83563e-05
-7.11611e-08
1.83515e-05
-7.66574e-08
1.83449e-05
-6.74204e-08
1.8337e-05
-5.98574e-08
1.83318e-05
-5.78348e-08
1.833e-05
-4.74507e-08
1.83289e-05
-3.91762e-08