/*--------------------------------*- C++ -*----------------------------------*\
| =========                 |                                                 |
| \\      /  F ield         | OpenFOAM: The Open Source CFD Toolbox           |
|  \\    /   O peration     | Version:  3.0.1                                 |
|   \\  /    A nd           | Web:      www.OpenFOAM.org                      |
|    \\/     M anipulation  |                                                 |
\*---------------------------------------------------------------------------*/
FoamFile
{
    version     2.0;
    format      ascii;
    class       volVectorField;
    location    "3.5";
    object      U;
}
// * * * * * * * * * * * * * * * * * * * * * * * * * * * * * * * * * * * * * //

dimensions      [0 1 -1 0 0 0 0];

internalField   nonuniform List<vector> 
9600
(
(0.817112 -0.00416276 0)
(1.1839 0.00588419 0)
(0.872213 0.00563813 0)
(1.06885 -0.00218959 0)
(0.8397 -0.0163429 0)
(1.18986 -0.0131785 0)
(0.961835 -0.00187594 0)
(1.10721 0.012091 0)
(0.935653 0.0155258 0)
(1.05102 0.000879081 0)
(0.880543 0.00236138 0)
(1.07157 -0.0176408 0)
(0.853974 -0.0115073 0)
(1.10609 -0.0166615 0)
(0.843227 -0.0161731 0)
(1.13949 -0.0132453 0)
(0.862261 -0.0145031 0)
(1.14388 -0.00586405 0)
(0.872516 -0.00250084 0)
(1.13601 0.00441871 0)
(0.830233 -0.00426715 0)
(1.17275 0.005614 0)
(0.891135 0.00638952 0)
(1.05419 -0.00167856 0)
(0.860324 -0.017884 0)
(1.16907 -0.0143331 0)
(0.972626 -0.00111454 0)
(1.09468 0.0124921 0)
(0.953001 0.0159569 0)
(1.03218 0.00202874 0)
(0.915655 0.00175724 0)
(1.03742 -0.0168562 0)
(0.900707 -0.0124956 0)
(1.05579 -0.0162239 0)
(0.904936 -0.0171304 0)
(1.07492 -0.013847 0)
(0.94006 -0.0143809 0)
(1.06109 -0.00672634 0)
(0.976386 -0.00125416 0)
(1.01694 0.00318513 0)
(0.854433 -0.00438759 0)
(1.1485 0.0053538 0)
(0.921355 0.0072115 0)
(1.03431 -0.00135079 0)
(0.889258 -0.019013 0)
(1.13289 -0.0152216 0)
(0.992921 -0.000529016 0)
(1.07133 0.0129184 0)
(0.976362 0.0166982 0)
(1.01509 0.00246178 0)
(0.952026 0.00165491 0)
(1.01339 -0.0165864 0)
(0.945549 -0.0128511 0)
(1.01661 -0.0163975 0)
(0.958307 -0.0174481 0)
(1.02487 -0.0146357 0)
(0.990161 -0.0140151 0)
(1.01607 -0.00762002 0)
(1.00804 -0.000390011 0)
(1.00127 0.00398693 0)
(0.88576 -0.00446605 0)
(1.11466 0.00503085 0)
(0.952417 0.00793111 0)
(1.01593 -0.00100794 0)
(0.919026 -0.0198871 0)
(1.08967 -0.0161141 0)
(1.01295 -6.24418e-06 0)
(1.04824 0.0132531 0)
(0.994751 0.0172718 0)
(1.00781 0.00275771 0)
(0.977842 0.00165547 0)
(1.00332 -0.0164163 0)
(0.972218 -0.0128603 0)
(0.99854 -0.0166961 0)
(0.982893 -0.0174554 0)
(1.00427 -0.0153784 0)
(1.00362 -0.013879 0)
(1.00712 -0.00794089 0)
(1.00855 -0.000234741 0)
(1.00666 0.0049878 0)
(0.918608 -0.00449836 0)
(1.07794 0.00464389 0)
(0.977224 0.00855848 0)
(1.00405 -0.000658378 0)
(0.943734 -0.0204816 0)
(1.04952 -0.017003 0)
(1.02436 0.000286464 0)
(1.03286 0.0135411 0)
(1.00642 0.0176471 0)
(1.00898 0.00298703 0)
(0.993973 0.00171101 0)
(1.00325 -0.0162034 0)
(0.985246 -0.0127675 0)
(0.99379 -0.0169062 0)
(0.99055 -0.0174475 0)
(0.998028 -0.0159294 0)
(1.00305 -0.0138565 0)
(1.00514 -0.00813413 0)
(1.00635 -0.000240426 0)
(1.00697 0.00571155 0)
(0.947638 -0.00448795 0)
(1.04522 0.00428417 0)
(0.993279 0.00902829 0)
(1.00009 -0.000328587 0)
(0.96184 -0.0207861 0)
(1.01898 -0.0177996 0)
(1.02535 0.000321306 0)
(1.02496 0.0138004 0)
(1.01396 0.0178634 0)
(1.01405 0.00316227 0)
(1.00451 0.00180301 0)
(1.00717 -0.0159182 0)
(0.992155 -0.0125978 0)
(0.993754 -0.0169977 0)
(0.992608 -0.0174263 0)
(0.995335 -0.0162783 0)
(0.99984 -0.0139055 0)
(1.00153 -0.0083639 0)
(1.00358 -0.000307782 0)
(1.0044 0.00622119 0)
(0.969552 -0.00443982 0)
(1.02091 0.00399993 0)
(1.00175 0.00928725 0)
(1.00207 -3.07156e-05 0)
(0.974773 -0.0208254 0)
(0.999366 -0.0184313 0)
(1.01896 0.000131428 0)
(1.02068 0.0139493 0)
(1.01923 0.017929 0)
(1.01942 0.00329944 0)
(1.01188 0.001924 0)
(1.01147 -0.0155643 0)
(0.996764 -0.0123387 0)
(0.994894 -0.0169991 0)
(0.993345 -0.0173352 0)
(0.99342 -0.0164859 0)
(0.996542 -0.0139982 0)
(0.997188 -0.00849176 0)
(0.999536 -0.000444091 0)
(1.00074 0.00657234 0)
(0.98372 -0.00436624 0)
(1.00583 0.00379038 0)
(1.00543 0.00934546 0)
(1.0067 0.000219354 0)
(0.984464 -0.0206483 0)
(0.988552 -0.0188713 0)
(1.00946 -0.000223935 0)
(1.01688 0.013909 0)
(1.02251 0.0178573 0)
(1.02313 0.00341349 0)
(1.01685 0.00206328 0)
(1.01471 -0.0151489 0)
(1.00022 -0.0120204 0)
(0.996269 -0.0169086 0)
(0.993786 -0.0171716 0)
(0.991999 -0.0165849 0)
(0.993551 -0.0140578 0)
(0.993167 -0.00848193 0)
(0.995063 -0.000652666 0)
(0.996613 0.00679708 0)
(0.991559 -0.00427965 0)
(0.998094 0.0036336 0)
(1.00682 0.0092529 0)
(1.01125 0.000400811 0)
(0.992052 -0.0203126 0)
(0.983552 -0.0191168 0)
(1.00007 -0.000654907 0)
(1.01244 0.0136702 0)
(1.02361 0.0176675 0)
(1.02451 0.0035012 0)
(1.01962 0.00220797 0)
(1.01654 -0.014693 0)
(1.00276 -0.0116771 0)
(0.99761 -0.0167247 0)
(0.994181 -0.0169702 0)
(0.991021 -0.0165518 0)
(0.991032 -0.0140641 0)
(0.989733 -0.00838677 0)
(0.99101 -0.000925678 0)
(0.992686 0.0069586 0)
(0.995311 -0.00418785 0)
(0.994902 0.00350485 0)
(1.00727 0.00906216 0)
(1.01435 0.000526831 0)
(0.997922 -0.0198738 0)
(0.981983 -0.0191798 0)
(0.99244 -0.00108213 0)
(1.00756 0.0132776 0)
(1.02268 0.0173833 0)
(1.02381 0.00355427 0)
(1.0205 0.00233973 0)
(1.01711 -0.0142195 0)
(1.00445 -0.0113369 0)
(0.998788 -0.0164602 0)
(0.994623 -0.0167484 0)
(0.990435 -0.0163708 0)
(0.989084 -0.0140436 0)
(0.986936 -0.00822192 0)
(0.987713 -0.00120104 0)
(0.989442 0.00705881 0)
(0.996973 -0.0040945 0)
(0.993918 0.00338618 0)
(1.00723 0.00881854 0)
(1.01578 0.000606075 0)
(1.0022 -0.0193778 0)
(0.98229 -0.0190908 0)
(0.987068 -0.00146379 0)
(1.00283 0.0127872 0)
(1.02033 0.0170288 0)
(1.02171 0.00357295 0)
(1.01997 0.00244015 0)
(1.01678 -0.0137454 0)
(1.00539 -0.0110254 0)
(0.999718 -0.0161302 0)
(0.995122 -0.0165119 0)
(0.990197 -0.0160612 0)
(0.987745 -0.014006 0)
(0.984812 -0.00797194 0)
(0.985217 -0.00139874 0)
(0.987006 0.00704992 0)
(0.997802 -0.00400163 0)
(0.993757 0.003272 0)
(1.00679 0.00855366 0)
(1.01593 0.000631148 0)
(1.00509 -0.0188586 0)
(0.98351 -0.0188848 0)
(0.983764 -0.0017772 0)
(0.998711 0.0122461 0)
(1.01726 0.0166241 0)
(1.019 0.00355626 0)
(1.01858 0.00249926 0)
(1.01596 -0.0132783 0)
(1.00576 -0.0107604 0)
(1.00036 -0.0157464 0)
(0.995633 -0.0162773 0)
(0.990234 -0.0156464 0)
(0.986987 -0.013928 0)
(0.983361 -0.00766135 0)
(0.983445 -0.0015745 0)
(0.985257 0.00689473 0)
(0.998371 -0.00391021 0)
(0.993811 0.00316433 0)
(1.00608 0.00828308 0)
(1.01535 0.00061643 0)
(1.00689 -0.0183362 0)
(0.985046 -0.0185964 0)
(0.982041 -0.00201614 0)
(0.995418 0.0116918 0)
(1.01407 0.0161846 0)
(1.01626 0.0035099 0)
(1.01681 0.00251279 0)
(1.01497 -0.0128195 0)
(1.00573 -0.0105481 0)
(1.0007 -0.0153192 0)
(0.996098 -0.0160602 0)
(0.990438 -0.0151484 0)
(0.986719 -0.0137946 0)
(0.982513 -0.00732887 0)
(0.982283 -0.00169667 0)
(0.984013 0.00660796 0)
(0.998846 -0.00382009 0)
(0.993886 0.00306477 0)
(1.0053 0.00801377 0)
(1.01448 0.000570564 0)
(1.00789 -0.0178198 0)
(0.986554 -0.0182542 0)
(0.981369 -0.00218638 0)
(0.99293 0.0111488 0)
(1.01111 0.01572 0)
(1.01381 0.00343904 0)
(1.015 0.00247752 0)
(1.014 -0.0123674 0)
(1.00551 -0.0103867 0)
(1.0008 -0.0148569 0)
(0.996484 -0.015864 0)
(0.990699 -0.0145914 0)
(0.986802 -0.0136023 0)
(0.982149 -0.00700388 0)
(0.981598 -0.00168452 0)
(0.983127 0.00623271 0)
(0.999239 -0.00373083 0)
(0.993954 0.00297295 0)
(1.00461 0.00774876 0)
(1.01358 0.000500258 0)
(1.00837 -0.0173119 0)
(0.98786 -0.0178758 0)
(0.981311 -0.00229576 0)
(0.991127 0.0106287 0)
(1.00858 0.0152351 0)
(1.01177 0.00334906 0)
(1.01337 0.00239448 0)
(1.01313 -0.0119184 0)
(1.00524 -0.010267 0)
(1.00072 -0.0143679 0)
(0.996783 -0.0156823 0)
(0.990945 -0.013998 0)
(0.98709 -0.0133501 0)
(0.982135 -0.0067009 0)
(0.981269 -0.00154522 0)
(0.982526 0.00581206 0)
(0.999541 -0.0036418 0)
(0.994023 0.00288715 0)
(1.00408 0.00748804 0)
(1.01278 0.000412774 0)
(1.00852 -0.0168104 0)
(0.98891 -0.0174745 0)
(0.981578 -0.00235527 0)
(0.989884 0.0101345 0)
(1.00655 0.0147313 0)
(1.01016 0.00324433 0)
(1.01201 0.00226754 0)
(1.01238 -0.0114665 0)
(1.005 -0.0101856 0)
(1.00053 -0.0138492 0)
(0.997008 -0.0155144 0)
(0.991151 -0.0133944 0)
(0.987466 -0.0130147 0)
(0.98236 -0.00643271 0)
(0.9812 -0.00130376 0)
(0.98219 0.00539242 0)
(0.999756 -0.0035523 0)
(0.994107 0.00280464 0)
(1.00373 0.00723057 0)
(1.0121 0.000311114 0)
(1.00846 -0.0163123 0)
(0.989718 -0.0170587 0)
(0.982008 -0.00237627 0)
(0.989114 0.00966313 0)
(1.00503 0.0142077 0)
(1.00895 0.00313076 0)
(1.01095 0.00210067 0)
(1.01175 -0.011005 0)
(1.00482 -0.010134 0)
(1.0003 -0.0133123 0)
(0.99717 -0.0153411 0)
(0.991327 -0.0128073 0)
(0.987858 -0.0125874 0)
(0.982746 -0.00621058 0)
(0.981334 -0.000980293 0)
(0.982115 0.00501504 0)
(0.999895 -0.00346173 0)
(0.994217 0.00272248 0)
(1.0035 0.00697552 0)
(1.01152 0.000199267 0)
(1.00827 -0.0158147 0)
(0.990335 -0.0166328 0)
(0.982517 -0.00237172 0)
(0.988744 0.00921079 0)
(1.00397 0.0136626 0)
(1.00808 0.00301612 0)
(1.01014 0.00189936 0)
(1.01122 -0.0105356 0)
(1.00469 -0.0100929 0)
(1.00006 -0.0127713 0)
(0.99728 -0.0151468 0)
(0.991491 -0.0122511 0)
(0.98823 -0.0120862 0)
(0.983245 -0.00602599 0)
(0.981631 -0.000630769 0)
(0.982283 0.00470654 0)
(0.999971 -0.00336972 0)
(0.994359 0.00263872 0)
(1.00335 0.00672175 0)
(1.01104 8.29011e-05 0)
(1.00801 -0.0153157 0)
(0.990826 -0.0161995 0)
(0.983062 -0.00235178 0)
(0.988695 0.00877192 0)
(1.00329 0.0130966 0)
(1.00747 0.00290356 0)
(1.00951 0.00167177 0)
(1.01076 -0.0100569 0)
(1.00459 -0.0100628 0)
(0.999836 -0.0122206 0)
(0.997349 -0.01492 0)
(0.991662 -0.0117469 0)
(0.988573 -0.0115129 0)
(0.983819 -0.00588959 0)
(0.982061 -0.000277899 0)
(0.98266 0.00448235 0)
(0.999992 -0.00327626 0)
(0.994539 0.00255265 0)
(1.00322 0.00646811 0)
(1.01062 -3.62712e-05 0)
(1.00769 -0.014814 0)
(0.99125 -0.015759 0)
(0.983619 -0.00232616 0)
(0.988882 0.00834275 0)
(1.00284 0.0125106 0)
(1.00703 0.00279678 0)
(1.00899 0.00142203 0)
(1.01035 -0.00957214 0)
(1.00449 -0.0100335 0)
(0.999637 -0.0116757 0)
(0.997385 -0.014643 0)
(0.991855 -0.0113032 0)
(0.988888 -0.0108705 0)
(0.98445 -0.0057778 0)
(0.982592 5.46027e-05 0)
(0.983182 0.00435047 0)
(0.999965 -0.00318141 0)
(0.994758 0.00246382 0)
(1.00309 0.00621458 0)
(1.01026 -0.000156887 0)
(1.00735 -0.0143095 0)
(0.991651 -0.01531 0)
(0.984176 -0.00230238 0)
(0.98922 0.00792163 0)
(1.00254 0.0119064 0)
(1.0067 0.0026969 0)
(1.00851 0.00116159 0)
(1.00998 -0.00909015 0)
(1.00439 -0.00998803 0)
(0.99946 -0.0111507 0)
(0.997395 -0.0143102 0)
(0.992081 -0.0109069 0)
(0.989183 -0.0101865 0)
(0.985116 -0.00564964 0)
(0.983195 0.000300816 0)
(0.983792 0.00429872 0)
(0.999901 -0.00308556 0)
(0.995011 0.00237291 0)
(1.00294 0.00596008 0)
(1.00993 -0.000275887 0)
(1.00698 -0.0138036 0)
(0.992053 -0.0148527 0)
(0.984727 -0.00228283 0)
(0.989645 0.00750871 0)
(1.00229 0.0112855 0)
(1.00641 0.00260262 0)
(1.00804 0.00089755 0)
(1.00961 -0.00861677 0)
(1.00427 -0.00992 0)
(0.999302 -0.0106458 0)
(0.997385 -0.0139141 0)
(0.992341 -0.0105542 0)
(0.989468 -0.00949358 0)
(0.9858 -0.0054937 0)
(0.983846 0.000462559 0)
(0.984439 0.00430148 0)
(0.999809 -0.00298854 0)
(0.995288 0.00228036 0)
(1.00278 0.00570258 0)
(1.00963 -0.000391987 0)
(1.0066 -0.0132985 0)
(0.992461 -0.0143868 0)
(0.985273 -0.00227098 0)
(0.990113 0.00710344 0)
(1.00208 0.0106545 0)
(1.00614 0.00251542 0)
(1.00758 0.000632612 0)
(1.00924 -0.00815786 0)
(1.00414 -0.00981895 0)
(0.999159 -0.0101688 0)
(0.997358 -0.0134625 0)
(0.992633 -0.0102386 0)
(0.989751 -0.00879803 0)
(0.986488 -0.00530158 0)
(0.98453 0.00054329 0)
(0.985093 0.00433174 0)
(0.999704 -0.00289073 0)
(0.995577 0.00218716 0)
(1.00261 0.00544178 0)
(1.00933 -0.000504674 0)
(1.00621 -0.0127962 0)
(0.992871 -0.0139117 0)
(0.985818 -0.00226786 0)
(0.990596 0.00670747 0)
(1.00187 0.0100128 0)
(1.00588 0.00242593 0)
(1.00711 0.000379837 0)
(1.00887 -0.00771888 0)
(1.00402 -0.0096866 0)
(0.999025 -0.00972352 0)
(0.997319 -0.0129563 0)
(0.992954 -0.00994819 0)
(0.99004 -0.00812031 0)
(0.987166 -0.00507994 0)
(0.98524 0.000549476 0)
(0.985738 0.00436137 0)
(0.9996 -0.00279304 0)
(0.995864 0.00209514 0)
(1.00244 0.00517717 0)
(1.00903 -0.000610479 0)
(1.00583 -0.0122988 0)
(0.993272 -0.0134274 0)
(0.986369 -0.00227272 0)
(0.991076 0.00631933 0)
(1.00167 0.00936412 0)
(1.00561 0.00232915 0)
(1.00665 0.000143507 0)
(1.00849 -0.00730286 0)
(1.00389 -0.00952734 0)
(0.998901 -0.00930252 0)
(0.997273 -0.0123996 0)
(0.993293 -0.00967415 0)
(0.99034 -0.00747836 0)
(0.987821 -0.00481657 0)
(0.985973 0.000501453 0)
(0.986371 0.0043776 0)
(0.999511 -0.00269502 0)
(0.996136 0.00200484 0)
(1.00229 0.00490629 0)
(1.00871 -0.000709326 0)
(1.00546 -0.0118077 0)
(0.993659 -0.012935 0)
(0.986929 -0.00228364 0)
(0.991543 0.00593568 0)
(1.00149 0.00872245 0)
(1.00533 0.00222651 0)
(1.00621 -7.5573e-05 0)
(1.0081 -0.00690805 0)
(1.00377 -0.00933728 0)
(0.998786 -0.00890421 0)
(0.997225 -0.0118043 0)
(0.993644 -0.00940845 0)
(0.990662 -0.00687196 0)
(0.988446 -0.00450244 0)
(0.986722 0.0004081 0)
(0.986995 0.00437305 0)
(0.999443 -0.00259685 0)
(0.996386 0.00191683 0)
(1.00215 0.00462897 0)
(1.00838 -0.00079978 0)
(1.00512 -0.0113232 0)
(0.994026 -0.0124383 0)
(0.987501 -0.00230462 0)
(0.991991 0.00555297 0)
(1.00132 0.00808858 0)
(1.00504 0.00211386 0)
(1.00579 -0.000273677 0)
(1.00769 -0.00653722 0)
(1.00365 -0.00911497 0)
(0.99868 -0.00852428 0)
(0.997176 -0.0111813 0)
(0.994003 -0.00913313 0)
(0.991009 -0.00631802 0)
(0.989032 -0.0041425 0)
(0.98748 0.000273301 0)
(0.987618 0.00432472 0)
(0.9994 -0.002499 0)
(0.996611 0.00183271 0)
(1.00203 0.00434545 0)
(1.00803 -0.000883034 0)
(1.00479 -0.0108468 0)
(0.994374 -0.0119354 0)
(0.988084 -0.00232981 0)
(0.992418 0.00516914 0)
(1.00117 0.00746015 0)
(1.00473 0.00198854 0)
(1.00538 -0.000451234 0)
(1.00728 -0.00619102 0)
(1.00354 -0.00886254 0)
(0.998585 -0.00815942 0)
(0.997128 -0.0105376 0)
(0.994363 -0.00884082 0)
(0.991385 -0.00582297 0)
(0.989578 -0.00374197 0)
(0.988236 0.000124633 0)
(0.988253 0.00419751 0)
(0.99938 -0.00240246 0)
(0.996814 0.00175417 0)
(1.00193 0.0040567 0)
(1.00766 -0.000962068 0)
(1.00449 -0.0103773 0)
(0.994706 -0.0114291 0)
(0.988675 -0.00234946 0)
(0.992825 0.00478425 0)
(1.00104 0.00684291 0)
(1.00442 0.00185168 0)
(1.00498 -0.000607949 0)
(1.00685 -0.00586799 0)
(1.00343 -0.00858665 0)
(0.998503 -0.00781008 0)
(0.997081 -0.00987855 0)
(0.994721 -0.00852709 0)
(0.991793 -0.00538832 0)
(0.990086 -0.00331964 0)
(0.988972 1.05432e-06 0)
(0.988913 0.00396569 0)
(0.999377 -0.00230583 0)
(0.996999 0.00167933 0)
(1.00184 0.00376393 0)
(1.00728 -0.00103168 0)
(1.00419 -0.00991539 0)
(0.995026 -0.0109316 0)
(0.989272 -0.0023654 0)
(0.993214 0.00439955 0)
(1.00091 0.00624032 0)
(1.0041 0.00170496 0)
(1.00459 -0.000741934 0)
(1.00642 -0.00556736 0)
(1.00331 -0.00829218 0)
(0.998435 -0.00747215 0)
(0.997034 -0.00920966 0)
(0.995071 -0.00818711 0)
(0.992231 -0.00502045 0)
(0.990564 -0.00289518 0)
(0.98967 -5.45378e-05 0)
(0.989599 0.00364232 0)
(0.999387 -0.00220976 0)
(0.997169 0.00160864 0)
(1.00176 0.00347004 0)
(1.0069 -0.00109857 0)
(1.00391 -0.00945608 0)
(0.995335 -0.0104483 0)
(0.989869 -0.00237195 0)
(0.993588 0.00401713 0)
(1.0008 0.00565037 0)
(1.00379 0.00154662 0)
(1.00421 -0.000854811 0)
(1.00599 -0.00528335 0)
(1.00319 -0.00798187 0)
(0.998384 -0.007141 0)
(0.996985 -0.00854503 0)
(0.995407 -0.00781225 0)
(0.992697 -0.00470946 0)
(0.991026 -0.00249368 0)
(0.990316 -2.94161e-05 0)
(0.990298 0.0032779 0)
(0.999404 -0.00211535 0)
(0.997331 0.00154283 0)
(1.00167 0.00317699 0)
(1.00652 -0.0011681 0)
(1.00363 -0.0089924 0)
(0.995635 -0.00998091 0)
(0.990463 -0.00237528 0)
(0.993949 0.00363943 0)
(1.00069 0.00507141 0)
(1.00348 0.00138069 0)
(1.00384 -0.000940677 0)
(1.00557 -0.00501157 0)
(1.00307 -0.0076578 0)
(0.998349 -0.00681374 0)
(0.996936 -0.00789482 0)
(0.995725 -0.00740786 0)
(0.993184 -0.00442772 0)
(0.991483 -0.00212884 0)
(0.990907 6.31427e-05 0)
(0.990988 0.00293807 0)
(0.999425 -0.00201988 0)
(0.997484 0.00147489 0)
(1.00159 0.00289034 0)
(1.00615 -0.00124116 0)
(1.00336 -0.00852594 0)
(0.995926 -0.00953034 0)
(0.991049 -0.00237399 0)
(0.994297 0.00327152 0)
(1.00059 0.00450048 0)
(1.00318 0.0011996 0)
(1.00347 -0.00100547 0)
(1.00514 -0.00475182 0)
(1.00295 -0.00733367 0)
(0.998333 -0.00648842 0)
(0.996887 -0.00725756 0)
(0.996022 -0.00698461 0)
(0.993686 -0.00416671 0)
(0.991941 -0.00180442 0)
(0.991446 0.000193808 0)
(0.991646 0.00266864 0)
(0.999449 -0.00192514 0)
(0.997632 0.00140607 0)
(1.0015 0.00261848 0)
(1.00578 -0.00133083 0)
(1.00309 -0.00805447 0)
(0.996209 -0.0090931 0)
(0.991626 -0.00237563 0)
(0.99463 0.00292198 0)
(1.00049 0.00395145 0)
(1.00288 0.00100611 0)
(1.00312 -0.00105257 0)
(1.00472 -0.00449403 0)
(1.00282 -0.00700923 0)
(0.998338 -0.00616807 0)
(0.996841 -0.00663255 0)
(0.996292 -0.00654209 0)
(0.994196 -0.00393867 0)
(0.992404 -0.00152336 0)
(0.991942 0.000326794 0)
(0.992257 0.00246919 0)
(0.999472 -0.00182944 0)
(0.997775 0.00133285 0)
(1.00141 0.00236791 0)
(1.00542 -0.00143821 0)
(1.00283 -0.00758287 0)
(0.996483 -0.00867362 0)
(0.992193 -0.002384 0)
(0.99495 0.0026005 0)
(1.00039 0.0034255 0)
(1.00261 0.000802118 0)
(1.00277 -0.00108146 0)
(1.0043 -0.00423122 0)
(1.00268 -0.00667156 0)
(0.998365 -0.00585976 0)
(0.996801 -0.00602313 0)
(0.996532 -0.00607576 0)
(0.994709 -0.00373376 0)
(0.992877 -0.00126866 0)
(0.992402 0.000463826 0)
(0.992815 0.00231956 0)
(0.999496 -0.00173291 0)
(0.997913 0.00125259 0)
(1.00131 0.00214442 0)
(1.00506 -0.00155596 0)
(1.00257 -0.00712386 0)
(0.996744 -0.00825965 0)
(0.99275 -0.00241185 0)
(0.995254 0.00229387 0)
(1.00029 0.00292344 0)
(1.00234 0.00058185 0)
(1.00244 -0.00109914 0)
(1.00389 -0.00396836 0)
(1.00254 -0.0063294 0)
(0.998413 -0.00556487 0)
(0.996772 -0.00544043 0)
(0.996737 -0.00558925 0)
(0.995218 -0.00354637 0)
(0.993361 -0.00105121 0)
(0.992829 0.000609467 0)
(0.993318 0.00219984 0)
(0.999519 -0.00163528 0)
(0.998047 0.0011621 0)
(1.00121 0.00195682 0)
(1.00472 -0.00168926 0)
(1.00232 -0.00668161 0)
(0.996992 -0.0078371 0)
(0.993296 -0.00246714 0)
(0.995548 0.00199172 0)
(1.00019 0.00246385 0)
(1.00209 0.000363233 0)
(1.00212 -0.00111118 0)
(1.00348 -0.00370502 0)
(1.00239 -0.00598559 0)
(0.99848 -0.00527575 0)
(0.996756 -0.00489284 0)
(0.996905 -0.00509043 0)
(0.995714 -0.0033706 0)
(0.993861 -0.000898503 0)
(0.993231 0.000755916 0)
(0.993764 0.00210727 0)
(0.999541 -0.00153367 0)
(0.998177 0.00105398 0)
(1.0011 0.00180513 0)
(1.00438 -0.00182381 0)
(1.00208 -0.00626981 0)
(0.997225 -0.00740058 0)
(0.993829 -0.00253905 0)
(0.995832 0.00169284 0)
(1.00009 0.00204676 0)
(1.00186 0.000141752 0)
(1.00182 -0.00112937 0)
(1.00308 -0.00344418 0)
(1.00223 -0.00563819 0)
(0.998563 -0.00499524 0)
(0.996756 -0.00438928 0)
(0.997036 -0.00457613 0)
(0.996184 -0.00318733 0)
(0.99438 -0.000795041 0)
(0.993621 0.000900247 0)
(0.994156 0.00205429 0)
(0.999563 -0.00143137 0)
(0.998306 0.000935073 0)
(1.00098 0.00167368 0)
(1.00405 -0.00193498 0)
(1.00186 -0.00590575 0)
(0.997442 -0.00695334 0)
(0.994343 -0.00261496 0)
(0.99611 0.00140288 0)
(0.999991 0.00168588 0)
(1.00164 -7.4674e-05 0)
(1.00154 -0.00114887 0)
(1.00268 -0.00318488 0)
(1.00206 -0.00528009 0)
(0.998659 -0.0047345 0)
(0.996778 -0.003935 0)
(0.997134 -0.00406731 0)
(0.996618 -0.00299263 0)
(0.994916 -0.000738473 0)
(0.994008 0.00101859 0)
(0.994495 0.00203889 0)
(0.999585 -0.0013272 0)
(0.998432 0.000804741 0)
(1.00086 0.00156052 0)
(1.00372 -0.00201906 0)
(1.00165 -0.00558443 0)
(0.997644 -0.00650302 0)
(0.994838 -0.0026769 0)
(0.996382 0.00110997 0)
(0.99989 0.00137332 0)
(1.00143 -0.000273755 0)
(1.00128 -0.00118281 0)
(1.0023 -0.00294779 0)
(1.00188 -0.00492195 0)
(0.998768 -0.00448802 0)
(0.996828 -0.00353507 0)
(0.997205 -0.00357694 0)
(0.997009 -0.00277586 0)
(0.995463 -0.000726934 0)
(0.994407 0.00109086 0)
(0.994787 0.00205927 0)
(0.999605 -0.0012245 0)
(0.998557 0.000660791 0)
(1.00074 0.00146604 0)
(1.00341 -0.00206488 0)
(1.00146 -0.00530887 0)
(0.997833 -0.00605667 0)
(0.995309 -0.00271589 0)
(0.996648 0.0008112 0)
(0.999789 0.00109493 0)
(1.00123 -0.000434945 0)
(1.00105 -0.0012269 0)
(1.00195 -0.00274167 0)
(1.0017 -0.00457889 0)
(0.998887 -0.00425682 0)
(0.996909 -0.00319329 0)
(0.997259 -0.00311181 0)
(0.997348 -0.00253712 0)
(0.996008 -0.000732194 0)
(0.994831 0.00110913 0)
(0.995049 0.00209626 0)
(0.999624 -0.00111638 0)
(0.998682 0.000497607 0)
(1.00063 0.00137222 0)
(1.0031 -0.00206408 0)
(1.00129 -0.00506182 0)
(0.998014 -0.00565294 0)
(0.995755 -0.00271794 0)
(0.996908 0.000515278 0)
(0.999692 0.000865085 0)
(1.00104 -0.000536674 0)
(1.00083 -0.00125648 0)
(1.00161 -0.00254534 0)
(1.00152 -0.00423544 0)
(0.999014 -0.00403018 0)
(0.997026 -0.0028968 0)
(0.997307 -0.00268013 0)
(0.997635 -0.00227971 0)
(0.996539 -0.000741719 0)
(0.995282 0.00107271 0)
(0.995301 0.0021177 0)
(0.999643 -0.0010134 0)
(0.998807 0.000337255 0)
(1.00052 0.00127158 0)
(1.00279 -0.00202727 0)
(1.00113 -0.00483465 0)
(0.998192 -0.00526104 0)
(0.996176 -0.00275026 0)
(0.997164 0.000225333 0)
(0.999609 0.000703955 0)
(1.00085 -0.000587556 0)
(1.00064 -0.00126284 0)
(1.0013 -0.00235537 0)
(1.00134 -0.00389086 0)
(0.999142 -0.00379797 0)
(0.997175 -0.00264913 0)
(0.997355 -0.00228562 0)
(0.997869 -0.00200235 0)
(0.997041 -0.00074607 0)
(0.995761 0.000998885 0)
(0.995564 0.00211037 0)
(0.999662 -0.000915529 0)
(0.998934 0.000182289 0)
(1.00041 0.00114544 0)
(1.00249 -0.00193491 0)
(1.00099 -0.00464425 0)
(0.998358 -0.00489975 0)
(0.996567 -0.00268726 0)
(0.99744 -2.84498e-05 0)
(0.999556 0.000497082 0)
(1.00067 -0.000649288 0)
(1.00045 -0.00126829 0)
(1.00101 -0.00218486 0)
(1.00114 -0.00356324 0)
(0.999253 -0.00356793 0)
(0.997343 -0.00244489 0)
(0.997408 -0.00194003 0)
(0.998047 -0.00171371 0)
(0.9975 -0.00073153 0)
(0.996261 0.000895834 0)
(0.995858 0.00205971 0)
(0.999679 -0.000818012 0)
(0.999057 2.96622e-05 0)
(1.00032 0.00100441 0)
(1.0022 -0.00182146 0)
(1.00086 -0.00443316 0)
(0.998533 -0.00455391 0)
(0.996941 -0.00254378 0)
(0.997692 -0.000276591 0)
(0.999514 0.00023198 0)
(1.00052 -0.000735673 0)
(1.00029 -0.00128142 0)
(1.00074 -0.00203775 0)
(1.00095 -0.00325538 0)
(0.999365 -0.00334099 0)
(0.997542 -0.00227071 0)
(0.997486 -0.00164927 0)
(0.998187 -0.00142434 0)
(0.997908 -0.000686053 0)
(0.996767 0.000772701 0)
(0.996187 0.00196451 0)
(0.999696 -0.000732605 0)
(0.99918 -0.000100832 0)
(1.00025 0.000835723 0)
(1.00192 -0.00168892 0)
(1.00074 -0.00415902 0)
(0.99871 -0.00423559 0)
(0.997286 -0.00244783 0)
(0.99793 -0.000492669 0)
(0.999487 -7.72614e-06 0)
(1.00038 -0.000833483 0)
(1.00015 -0.00129642 0)
(1.0005 -0.00189852 0)
(1.00077 -0.00294985 0)
(0.999472 -0.00310419 0)
(0.997769 -0.00211216 0)
(0.997597 -0.00140738 0)
(0.998305 -0.00114702 0)
(0.99826 -0.000606448 0)
(0.997267 0.000652809 0)
(0.996553 0.00184321 0)
(0.999712 -0.000654247 0)
(0.999297 -0.000215263 0)
(1.00019 0.000640808 0)
(1.00166 -0.00152335 0)
(1.00063 -0.00387044 0)
(0.998884 -0.00397973 0)
(0.997614 -0.00234465 0)
(0.998152 -0.00064675 0)
(0.999468 -0.000233403 0)
(1.00026 -0.000929745 0)
(1.00004 -0.0012956 0)
(1.00031 -0.0017527 0)
(1.0006 -0.00264724 0)
(0.999567 -0.00285929 0)
(0.998008 -0.00196439 0)
(0.997737 -0.00121327 0)
(0.998407 -0.00089824 0)
(0.998555 -0.000501742 0)
(0.997745 0.000546567 0)
(0.996951 0.00169561 0)
(0.999728 -0.000587173 0)
(0.999408 -0.00030645 0)
(1.00016 0.000448756 0)
(1.00142 -0.00138102 0)
(1.00052 -0.00358047 0)
(0.999054 -0.00373539 0)
(0.997929 -0.00224632 0)
(0.998361 -0.00076036 0)
(0.99946 -0.00041223 0)
(1.00017 -0.00100647 0)
(0.99996 -0.00129458 0)
(1.00014 -0.00162449 0)
(1.00044 -0.00237108 0)
(0.999648 -0.00261671 0)
(0.998254 -0.00182829 0)
(0.997908 -0.0010593 0)
(0.99851 -0.000681714 0)
(0.998799 -0.000372566 0)
(0.998189 0.000469618 0)
(0.997373 0.00153058 0)
(0.999744 -0.000528678 0)
(0.999511 -0.000376545 0)
(1.00014 0.000242924 0)
(1.00121 -0.00126327 0)
(1.00041 -0.00326103 0)
(0.999218 -0.00349239 0)
(0.998231 -0.00216345 0)
(0.99856 -0.000849503 0)
(0.999458 -0.000543225 0)
(1.00009 -0.00107109 0)
(0.999904 -0.00130439 0)
(1.00001 -0.00151732 0)
(1.0003 -0.00211322 0)
(0.999719 -0.0023732 0)
(0.998501 -0.00169221 0)
(0.998107 -0.000935416 0)
(0.998622 -0.000503775 0)
(0.999 -0.000236157 0)
(0.998584 0.000428468 0)
(0.997805 0.00136394 0)
(0.99976 -0.000481212 0)
(0.999604 -0.000425036 0)
(1.00014 3.45565e-05 0)
(1.00103 -0.00116818 0)
(1.00031 -0.00292826 0)
(0.999368 -0.00324978 0)
(0.998521 -0.00210076 0)
(0.998757 -0.000922154 0)
(0.999467 -0.000634271 0)
(1.00003 -0.00111373 0)
(0.999871 -0.00131409 0)
(0.99992 -0.00142996 0)
(1.00018 -0.00187107 0)
(0.999778 -0.00213533 0)
(0.998741 -0.00155581 0)
(0.998326 -0.00083272 0)
(0.998751 -0.00036537 0)
(0.999175 -0.000109283 0)
(0.998929 0.000422345 0)
(0.998231 0.00121482 0)
(0.999776 -0.000444739 0)
(0.999686 -0.000446692 0)
(1.00014 -0.000164204 0)
(1.00089 -0.00111409 0)
(1.00022 -0.00259231 0)
(0.999501 -0.00299414 0)
(0.998797 -0.00204753 0)
(0.998951 -0.000986659 0)
(0.999482 -0.00070142 0)
(0.999976 -0.00113313 0)
(0.999857 -0.00131847 0)
(0.999868 -0.00136227 0)
(1.00009 -0.00165422 0)
(0.999831 -0.0019001 0)
(0.998974 -0.00141675 0)
(0.99856 -0.000741237 0)
(0.998898 -0.000254172 0)
(0.999335 4.11504e-06 0)
(0.999227 0.000440092 0)
(0.998631 0.00109115 0)
(0.99979 -0.000414436 0)
(0.999756 -0.000449844 0)
(1.00015 -0.000337823 0)
(1.00078 -0.00108018 0)
(1.00014 -0.00227016 0)
(0.999612 -0.00272903 0)
(0.999052 -0.00200168 0)
(0.999147 -0.001062 0)
(0.999511 -0.000749213 0)
(0.999934 -0.00111564 0)
(0.999856 -0.00129652 0)
(0.999847 -0.00130306 0)
(1.00002 -0.00146755 0)
(0.999879 -0.00167472 0)
(0.999193 -0.00127885 0)
(0.998802 -0.000664156 0)
(0.999062 -0.000168777 0)
(0.999489 9.50669e-05 0)
(0.999483 0.000464301 0)
(0.998994 0.000998548 0)
(0.999805 -0.000390714 0)
(0.999813 -0.000432302 0)
(1.00017 -0.000469582 0)
(1.00071 -0.00106867 0)
(1.00008 -0.00198931 0)
(0.999702 -0.00246375 0)
(0.999283 -0.00194526 0)
(0.999343 -0.0011398 0)
(0.999557 -0.000789584 0)
(0.999903 -0.0010789 0)
(0.999862 -0.00125948 0)
(0.999853 -0.00125461 0)
(0.999985 -0.00131426 0)
(0.999927 -0.00146946 0)
(0.999397 -0.00114247 0)
(0.999047 -0.000594152 0)
(0.999242 -0.000101994 0)
(0.99964 0.000167456 0)
(0.999711 0.000486593 0)
(0.999317 0.000936215 0)
(0.999819 -0.000370856 0)
(0.999861 -0.000404221 0)
(1.00018 -0.000549691 0)
(1.00066 -0.00108504 0)
(1.00004 -0.00175738 0)
(0.999772 -0.00219977 0)
(0.999483 -0.00187038 0)
(0.999535 -0.00121236 0)
(0.99962 -0.000832183 0)
(0.999882 -0.00103042 0)
(0.999869 -0.00119927 0)
(0.999878 -0.00120153 0)
(0.999977 -0.00118265 0)
(0.999978 -0.00128638 0)
(0.999585 -0.00100996 0)
(0.999288 -0.000524923 0)
(0.999432 -5.31816e-05 0)
(0.999791 0.000225995 0)
(0.999915 0.000503211 0)
(0.999605 0.000884392 0)
(0.999831 -0.000351305 0)
(0.9999 -0.000376435 0)
(1.00018 -0.000585844 0)
(1.00062 -0.00111196 0)
(1.00002 -0.00157541 0)
(0.999828 -0.0019445 0)
(0.99965 -0.00176706 0)
(0.999718 -0.00126736 0)
(0.999702 -0.00088139 0)
(0.999877 -0.00098108 0)
(0.999877 -0.001117 0)
(0.999913 -0.00114011 0)
(0.999991 -0.00106955 0)
(1.00003 -0.00112224 0)
(0.99976 -0.000886289 0)
(0.99952 -0.000460078 0)
(0.999629 -1.88484e-05 0)
(0.999942 0.000266575 0)
(1.0001 0.000519038 0)
(0.999865 0.00083248 0)
(0.999842 -0.000330688 0)
(0.999933 -0.000355223 0)
(1.00017 -0.000588104 0)
(1.0006 -0.00112862 0)
(1.00002 -0.00143961 0)
(0.999876 -0.00171073 0)
(0.999783 -0.0016357 0)
(0.999882 -0.00129402 0)
(0.999798 -0.000931917 0)
(0.999892 -0.0009433 0)
(0.999887 -0.00102605 0)
(0.999952 -0.00106591 0)
(1.00002 -0.00097546 0)
(1.00009 -0.000977024 0)
(0.999919 -0.000771583 0)
(0.999741 -0.000401567 0)
(0.999827 1.1125e-05 0)
(1.0001 0.000289954 0)
(1.00026 0.000535747 0)
(1.0001 0.000786553 0)
(0.999851 -0.000307786 0)
(0.999962 -0.000344236 0)
(1.00016 -0.000569538 0)
(1.00059 -0.00112476 0)
(1.00004 -0.00133888 0)
(0.999923 -0.00150369 0)
(0.999887 -0.00148825 0)
(1.00002 -0.00128924 0)
(0.999902 -0.000973317 0)
(0.999928 -0.000917043 0)
(0.999904 -0.000938689 0)
(0.99999 -0.000977108 0)
(1.00007 -0.000885586 0)
(1.00016 -0.000854439 0)
(1.00007 -0.000663698 0)
(0.999948 -0.000347886 0)
(1.00002 3.39925e-05 0)
(1.00026 0.000300573 0)
(1.00041 0.000543559 0)
(1.0003 0.000752583 0)
(0.999859 -0.000283501 0)
(0.99999 -0.000340215 0)
(1.00014 -0.000538311 0)
(1.00057 -0.0010945 0)
(1.00008 -0.00126192 0)
(0.999975 -0.00132909 0)
(0.999966 -0.00133582 0)
(1.00014 -0.00124991 0)
(1.00001 -0.000996637 0)
(0.999983 -0.00090155 0)
(0.999932 -0.000860001 0)
(1.00003 -0.000886102 0)
(1.00012 -0.000793141 0)
(1.00023 -0.000748155 0)
(1.0002 -0.000568991 0)
(1.00014 -0.000297268 0)
(1.00021 4.69615e-05 0)
(1.00042 0.000301696 0)
(1.00055 0.00053753 0)
(1.00047 0.000726266 0)
(0.999865 -0.000258221 0)
(1.00002 -0.000339606 0)
(1.00012 -0.000501646 0)
(1.00056 -0.0010372 0)
(1.00012 -0.00119596 0)
(1.00003 -0.00119274 0)
(1.00003 -0.0011874 0)
(1.00023 -0.00117898 0)
(1.00011 -0.00099517 0)
(1.00005 -0.000887571 0)
(0.999974 -0.000792698 0)
(1.00007 -0.000796995 0)
(1.00017 -0.000704739 0)
(1.0003 -0.000647161 0)
(1.00032 -0.000486523 0)
(1.00031 -0.000249653 0)
(1.00039 5.82199e-05 0)
(1.00057 0.000293544 0)
(1.0007 0.000522032 0)
(1.00062 0.000697745 0)
(0.99987 -0.000232508 0)
(1.00004 -0.000339301 0)
(1.0001 -0.000465259 0)
(1.00054 -0.000959898 0)
(1.00017 -0.00112749 0)
(1.0001 -0.00108729 0)
(1.00009 -0.00105171 0)
(1.0003 -0.00108879 0)
(1.00019 -0.000966449 0)
(1.00013 -0.00086824 0)
(1.00003 -0.000737529 0)
(1.00012 -0.00071066 0)
(1.00022 -0.000621992 0)
(1.00037 -0.000555318 0)
(1.00044 -0.000409049 0)
(1.00048 -0.000210672 0)
(1.00056 7.07754e-05 0)
(1.00073 0.000279766 0)
(1.00083 0.000498485 0)
(1.00076 0.000663523 0)
(0.999874 -0.000207712 0)
(1.00006 -0.000334362 0)
(1.00009 -0.000432323 0)
(1.00052 -0.000871184 0)
(1.00022 -0.0010499 0)
(1.00018 -0.00100063 0)
(1.00014 -0.000932717 0)
(1.00036 -0.000987622 0)
(1.00027 -0.000910549 0)