/*--------------------------------*- C++ -*----------------------------------*\
| =========                 |                                                 |
| \\      /  F ield         | OpenFOAM: The Open Source CFD Toolbox           |
|  \\    /   O peration     | Version:  3.0.1                                 |
|   \\  /    A nd           | Web:      www.OpenFOAM.org                      |
|    \\/     M anipulation  |                                                 |
\*---------------------------------------------------------------------------*/
FoamFile
{
    version     2.0;
    format      ascii;
    class       volScalarField;
    location    "2.8";
    object      p;
}
// * * * * * * * * * * * * * * * * * * * * * * * * * * * * * * * * * * * * * //

dimensions      [0 2 -2 0 0 0 0];

internalField   nonuniform List<scalar> 
9600
(
-2.69446e-11
-0.000831527
-0.000979546
-0.00200232
-5.08618e-05
0.00200613
-0.000454521
-0.00194285
-0.000787344
-9.28085e-05
0.000112138
0.00184289
0.00264788
0.00328948
0.00459109
0.00505844
0.0074622
0.00809309
0.0118254
0.0165934
1.85336e-06
-0.000839358
-0.000980289
-0.00198815
-5.06736e-05
0.00196273
-0.000445781
-0.00194447
-0.00078479
-6.85074e-05
0.000103938
0.00184388
0.00265354
0.00327295
0.00458435
0.00499264
0.00746867
0.00802122
0.0118851
0.0161215
3.04411e-06
-0.000848356
-0.000978762
-0.00197336
-5.95756e-05
0.00191507
-0.000435791
-0.00194507
-0.000774366
-4.9358e-05
9.24888e-05
0.00184357
0.00265643
0.00324487
0.00456302
0.00493619
0.00746749
0.00795366
0.0118941
0.0155033
2.82414e-06
-0.000856696
-0.000976767
-0.00196051
-6.86772e-05
0.00186406
-0.000432752
-0.00194036
-0.000758084
-3.71398e-05
8.30383e-05
0.00183743
0.0026584
0.00321299
0.00453916
0.00487915
0.00746
0.00789274
0.0118288
0.0149819
1.52967e-06
-0.000864278
-0.000974971
-0.0019479
-7.38853e-05
0.00180828
-0.000434754
-0.00192842
-0.000737376
-3.03966e-05
7.43084e-05
0.00182678
0.00266263
0.0031792
0.00451732
0.00481714
0.00745582
0.00782849
0.0117359
0.0145171
-5.90826e-07
-0.000871003
-0.000973395
-0.00193467
-7.53936e-05
0.00174867
-0.000438873
-0.00190952
-0.000713905
-2.78689e-05
6.50204e-05
0.00181445
0.00266797
0.00314308
0.00449763
0.00475375
0.00745087
0.00776453
0.0116156
0.0140805
-3.3177e-06
-0.000876899
-0.000972094
-0.00192058
-7.3766e-05
0.0016862
-0.000443399
-0.00188482
-0.00068885
-2.76436e-05
5.48218e-05
0.00180149
0.00267312
0.00310407
0.00448032
0.0046909
0.00743947
0.00770476
0.0114589
0.0136652
-6.4129e-06
-0.000882223
-0.000971057
-0.0019055
-6.98946e-05
0.00162127
-0.000447185
-0.0018558
-0.000662681
-2.7995e-05
4.36034e-05
0.00178828
0.00267791
0.00306156
0.00446478
0.00462983
0.00741856
0.0076509
0.0112625
0.013268
-9.69796e-06
-0.000887312
-0.000970158
-0.00188956
-6.51851e-05
0.00155409
-0.000449635
-0.00182383
-0.000635572
-2.79192e-05
3.13517e-05
0.00177503
0.00268226
0.00301527
0.00444942
0.00457232
0.00738565
0.00760322
0.0110263
0.0128847
-1.30745e-05
-0.000892447
-0.000969276
-0.00187308
-6.0823e-05
0.00148498
-0.000450659
-0.00179004
-0.000607695
-2.69214e-05
1.79357e-05
0.00176166
0.00268612
0.00296549
0.00443232
0.00452021
0.00733794
0.00756037
0.0107521
0.0125101
-1.64951e-05
-0.000897833
-0.000968356
-0.00185634
-5.7434e-05
0.00141424
-0.000450432
-0.0017553
-0.000579322
-2.47116e-05
3.04953e-06
0.001748
0.00268952
0.00291275
0.00441158
0.00447467
0.00727278
0.0075201
0.0104444
0.0121381
-1.99399e-05
-0.000903605
-0.000967375
-0.00183949
-5.52321e-05
0.00134218
-0.000449195
-0.0017203
-0.000550836
-2.10444e-05
-1.36561e-05
0.00173395
0.00269215
0.00285788
0.00438551
0.00443565
0.0071884
0.00748029
0.0101084
0.0117639
-2.33968e-05
-0.000909841
-0.000966326
-0.00182253
-5.42338e-05
0.00126903
-0.000447194
-0.00168549
-0.000522657
-1.56508e-05
-3.25037e-05
0.00171933
0.00269351
0.0028019
0.00435259
0.0044023
0.00708418
0.00744073
0.00974999
0.0113719
-2.68528e-05
-0.000916592
-0.000965222
-0.00180542
-5.43986e-05
0.00119502
-0.000444669
-0.00165112
-0.000495195
-8.22875e-06
-5.38036e-05
0.00170391
0.00269319
0.00274567
0.00431137
0.00437342
0.00696068
0.00738851
0.00937473
0.0109642
-3.02979e-05
-0.000923889
-0.000964087
-0.00178808
-5.56957e-05
0.00112039
-0.000441869
-0.00161731
-0.000468857
1.55144e-06
-7.7865e-05
0.00168758
0.00269081
0.0026898
0.00426064
0.0043472
0.00681953
0.00732223
0.00898872
0.0105391
-3.37296e-05
-0.000931752
-0.000962955
-0.00177044
-5.81422e-05
0.00104538
-0.000439051
-0.00158405
-0.000444113
1.40304e-05
-0.000104926
0.00167022
0.0026861
0.00263445
0.00420003
0.0043216
0.00666241
0.00723887
0.00859748
0.0100972
-3.71558e-05
-0.000940182
-0.000961866
-0.00175245
-6.18291e-05
0.000970255
-0.000436469
-0.0015512
-0.000421513
2.94788e-05
-0.000135088
0.00165149
0.00267908
0.00257932
0.00412984
0.00429393
0.00649091
0.00713567
0.00820511
0.00963966
-4.05945e-05
-0.00094917
-0.000960873
-0.00173405
-6.69214e-05
0.000895301
-0.000434389
-0.00151861
-0.000401561
4.80976e-05
-0.00016835
0.00163097
0.00266982
0.00252379
0.00405087
0.00426119
0.00630667
0.00701227
0.00781446
0.00916729
-4.40722e-05
-0.000958691
-0.000960043
-0.00171516
-7.3637e-05
0.000820839
-0.000433121
-0.00148609
-0.000384748
7.0055e-05
-0.000204555
0.00160803
0.00265861
0.00246668
0.00396424
0.00422174
0.00611041
0.0068686
0.00742743
0.00868098
-4.76288e-05
-0.000968693
-0.000959462
-0.00169569
-8.22282e-05
0.000747216
-0.000433035
-0.0014534
-0.000371565
9.53126e-05
-0.000243272
0.00158161
0.00264634
0.00240672
0.00387057
0.00417488
0.0059016
0.00670491
0.00704642
0.00818182
-5.1321e-05
-0.000979096
-0.000959241
-0.00167555
-9.29943e-05
0.000674804
-0.000434475
-0.00142044
-0.000362317
0.000123627
-0.000283808
0.00155036
0.00263396
0.00234265
0.00376962
0.00412058
0.00567951
0.00652162
0.00667448
0.00767086
-5.52186e-05
-0.0009898
-0.000959525
-0.00165461
-0.000106255
0.000603926
-0.000437735
-0.00138713
-0.000357322
0.000154564
-0.000325032
0.0015127
0.00262214
0.00227363
0.00366037
0.00405994
0.00544377
0.00631741
0.00631529
0.00715042
-5.94084e-05
-0.00100067
-0.000960488
-0.00163271
-0.000122308
0.000534909
-0.000443159
-0.00135333
-0.000356851
0.000187383
-0.000365419
0.00146692
0.00261137
0.00219965
0.0035412
0.00399457
0.0051944
0.00608955
0.00597283
0.00662442
-6.40058e-05
-0.00101151
-0.000962322
-0.00160974
-0.000141454
0.000468088
-0.000451024
-0.00131921
-0.00036079
0.000220998
-0.000403327
0.00141157
0.00260158
0.00212134
0.0034099
0.00392556
0.0049332
0.00583502
0.00564939
0.0060987
-6.91513e-05
-0.00102211
-0.000965246
-0.00158558
-0.00016397
0.000403656
-0.000461485
-0.00128496
-0.000368881
0.000253976
-0.000437047
0.00134545
0.00259207
0.00203997
0.00326361
0.00385308
0.0046644
0.00555024
0.00534407
0.00558247
-7.5016e-05
-0.00103218
-0.000969497
-0.00156014
-0.000190076
0.000341694
-0.000474605
-0.00125094
-0.00038068
0.00028489
-0.00046518
0.00126758
0.00258131
0.00195748
0.00309977
0.00377583
0.00439422
0.00523274
0.0050528
0.00508771
-8.18075e-05
-0.0010414
-0.000975315
-0.0015334
-0.000219937
0.000282245
-0.000490226
-0.0012178
-0.000395382
0.00031222
-0.000486887
0.00117771
0.00256728
0.0018762
0.00291632
0.00369041
0.00413022
0.00488332
0.00476708
0.00462647
-8.97536e-05
-0.0010494
-0.000982926
-0.00150537
-0.000253626
0.000225208
-0.000507907
-0.00118651
-0.000412092
0.000334613
-0.000502006
0.00107634
0.00254746
0.00179828
0.0027123
0.00359185
0.00387938
0.00450595
0.00447502
0.00420886
-9.91104e-05
-0.0010558
-0.000992527
-0.00147617
-0.000291088
0.000170204
-0.000526816
-0.00115823
-0.000430289
0.000351283
-0.000510864
0.000964494
0.00251862
0.00172563
0.00248869
0.00347421
0.00364634
0.00410805
0.00416348
0.00383881
-0.000110175
-0.0010602
-0.00100422
-0.00144599
-0.00033217
0.000116733
-0.000545883
-0.00113406
-0.00044988
0.000361214
-0.000513984
0.000843558
0.00247763
0.00165964
0.00224752
0.00333134
0.00343341
0.00370102
0.00382042
0.00350933
-0.000123232
-0.00106228
-0.00101806
-0.00141514
-0.000376408
6.40087e-05
-0.000564071
-0.00111469
-0.000471099
0.000362853
-0.000512258
0.000714837
0.0024216
0.00160098
0.00199224
0.00315788
0.00323961
0.00329842
0.00343989
0.0032039
-0.000138562
-0.00106166
-0.00103407
-0.00138419
-0.000422968
1.08289e-05
-0.000580427
-0.00110019
-0.000494776
0.0003584
-0.000506907
0.000579372
0.00234776
0.00154943
0.0017278
0.0029501
0.00305996
0.00291333
0.00302512
0.00289879
-0.000156469
-0.00105803
-0.00105204
-0.00135388
-0.000470851
-4.38471e-05
-0.000594432
-0.00109005
-0.000521899
0.000346987
-0.000499017
0.000438381
0.00225353
0.00150398
0.00145965
0.00270599
0.00288709
0.00255611
0.00258628
0.00257069
-0.000177223
-0.00105112
-0.00107155
-0.00132524
-0.000518844
-0.00010077
-0.000606276
-0.00108324
-0.00055328
0.000327292
-0.00048967
0.00029328
0.00213624
0.00146307
0.00119421
0.00242522
0.00271231
0.00223224
0.00213697
0.0022067
-0.000201014
-0.00104076
-0.00109185
-0.00129954
-0.000565986
-0.000160271
-0.00061668
-0.0010788
-0.000589664
0.000298407
-0.000479924
0.000145138
0.00199364
0.00142443
0.00093818
0.00210946
0.00252668
0.001943
0.00169112
0.0018065
-0.000227961
-0.00102596
-0.00111187
-0.00127775
-0.000611718
-0.000221957
-0.00062676
-0.00107628
-0.000631554
0.000259486
-0.000471047
-5.09567e-06
0.00182464
0.00138442
0.000698779
0.00176306
0.00232062
0.00168663
0.00126104
0.00137669
-0.000258123
-0.00101082
-0.00113034
-0.00126033
-0.000656056
-0.000285405
-0.000637433
-0.00107555
-0.000679337
0.000209553
-0.000464712
-0.000156208
0.00162932
0.00133838
0.00048299
0.00139281
0.00208437
0.00145875
0.000857154
0.00092619
-0.000291444
-0.000995173
-0.00114599
-0.00124658
-0.000699881
-0.000350596
-0.000649279
-0.00107669
-0.000733495
0.000147623
-0.000461953
-0.000306191
0.00140911
0.00128098
0.000294861
0.00100748
0.00181004
0.00125154
0.000488369
0.000465331
-0.000327856
-0.000979656
-0.00115791
-0.00123546
-0.000744046
-0.000418194
-0.000663374
-0.00107976
-0.000793953
7.30405e-05
-0.000462886
-0.000451514
0.00116698
0.00120583
0.000134795
0.000617262
0.00149252
0.00105304
0.000162089
7.08831e-06
-0.000367171
-0.00096506
-0.00116563
-0.00122614
-0.000788784
-0.000489586
-0.00068216
-0.0010843
-0.000859344
-1.4276e-05
-0.000468794
-0.00058827
0.000906752
0.00110544
-1.61659e-07
0.000233658
0.00113146
0.00084841
-0.000118213
-0.000433061
-0.000408802
-0.000952193
-0.00116965
-0.00121803
-0.000833531
-0.000566
-0.00070847
-0.00108994
-0.000927538
-0.000114108
-0.000481634
-0.000713498
0.000632948
0.000973486
-0.000115803
-0.000131621
0.000732457
0.000621845
-0.000357015
-0.000839457
-0.000451936
-0.000941686
-0.00117104
-0.00121094
-0.000876904
-0.000647642
-0.000745397
-0.00109635
-0.000997161
-0.00022562
-0.00050306
-0.000825628
0.000351
0.000807146
-0.000220185
-0.000469708
0.000305507
0.000360369
-0.000566165
-0.00119953
-0.000496021
-0.000933583
-0.00117092
-0.00120501
-0.000918397
-0.000732651
-0.000794194
-0.00110968
-0.00106831
-0.00034653
-0.000534562
-0.000924536
6.72806e-05
0.000606515
-0.000322669
-0.000775336
-0.000136791
5.69112e-05
-0.000762157
-0.00150778
-0.000540814
-0.000927493
-0.00116988
-0.00120151
-0.000957448
-0.000819748
-0.00085729
-0.00113921
-0.00114035
-0.000473374
-0.000577611
-0.00101193
-0.000211443
0.000374002
-0.000432738
-0.00104668
-0.000580797
-0.000288799
-0.000962374
-0.00176789
-0.000585857
-0.000923581
-0.00116858
-0.00120199
-0.000993602
-0.000908357
-0.000938005
-0.00117484
-0.00120932
-0.000605555
-0.000635918
-0.00109188
-0.000480472
0.000114503
-0.000558916
-0.00128587
-0.00101322
-0.000671723
-0.00118222
-0.00199086
-0.000630471
-0.000922319
-0.0011685
-0.00120939
-0.0010333
-0.000994505
-0.00102186
-0.00121558
-0.00127758
-0.000744222
-0.000714196
-0.0011721
-0.000738814
-0.000166461
-0.000707553
-0.00149846
-0.00142254
-0.00108275
-0.00143274
-0.00219183
-0.000674419
-0.000924138
-0.00117063
-0.00122559
-0.00107674
-0.00107347
-0.00110658
-0.00126699
-0.00134759
-0.000886928
-0.000812534
-0.00125697
-0.00098584
-0.000463194
-0.000881887
-0.00169191
-0.00180004
-0.00150896
-0.00171885
-0.00238728
-0.000717717
-0.0009294
-0.0011751
-0.00125336
-0.00112395
-0.00114716
-0.00119339
-0.00132845
-0.00141973
-0.00103316
-0.000930223
-0.00134872
-0.00121951
-0.000768709
-0.00108259
-0.00187487
-0.00214212
-0.00193655
-0.00203944
-0.00259227
-0.00076035
-0.000938498
-0.0011815
-0.00128335
-0.00117786
-0.00121845
-0.00127938
-0.0013981
-0.00149856
-0.00118251
-0.00106333
-0.00144859
-0.0014404
-0.00107747
-0.00130926
-0.00205695
-0.00245039
-0.002353
-0.00238797
-0.0028172
-0.000802331
-0.000951681
-0.00118994
-0.00131946
-0.00123964
-0.0012891
-0.00136361
-0.00147509
-0.0015844
-0.00133398
-0.00120862
-0.00155839
-0.00165135
-0.00138546
-0.00155941
-0.00224625
-0.00272922
-0.00274767
-0.00275374
-0.00306666
-0.000843613
-0.000969149
-0.00120127
-0.00135906
-0.00130922
-0.00136181
-0.00144642
-0.00155709
-0.00167623
-0.00148797
-0.00136654
-0.00167986
-0.00185336
-0.00168831
-0.00182834
-0.00244813
-0.00298524
-0.00311467
-0.00312577
-0.00334005
-0.000884232
-0.000991274
-0.00121639
-0.00140124
-0.00138601
-0.00143928
-0.00152859
-0.00164257
-0.00177335
-0.00164451
-0.00153686
-0.00181444
-0.00204739
-0.00198212
-0.00211054
-0.00266529
-0.00322729
-0.0034536
-0.00349436
-0.00363246
-0.000924488
-0.00101841
-0.00123641
-0.00144397
-0.00146794
-0.00152344
-0.0016124
-0.00173118
-0.00187529
-0.00180296
-0.00171725
-0.0019633
-0.00223675
-0.00226411
-0.0024002
-0.00289771
-0.00346259
-0.00376602
-0.00385123
-0.00393752
-0.00096494
-0.00105084
-0.00126209
-0.001487
-0.00155221
-0.00161509
-0.00170131
-0.00182318
-0.00198109
-0.00196281
-0.00190536
-0.00212584
-0.0024251
-0.00253414
-0.00269207
-0.00314354
-0.00369564
-0.00405493
-0.00419099
-0.00424919
-0.00100632
-0.0010883
-0.00129393
-0.0015307
-0.00163679
-0.00171412
-0.00179794
-0.00191954
-0.00208961
-0.00212302
-0.00209991
-0.00230117
-0.0026148
-0.00279373
-0.00298166
-0.0033995
-0.00393032
-0.00432517
-0.00451088
-0.00456121
-0.00104925
-0.00113035
-0.00133222
-0.00157631
-0.00172061
-0.0018191
-0.00190344
-0.00202237
-0.00220122
-0.00228154
-0.00229859
-0.00248915
-0.00280759
-0.00304354
-0.00326532
-0.003661
-0.00416937
-0.00458271
-0.00480996
-0.00486767
-0.00109423
-0.0011765
-0.00137714
-0.00162578
-0.00180348
-0.00192756
-0.00201756
-0.00213375
-0.00231732
-0.00243764
-0.0024975
-0.00268751
-0.0030057
-0.00328488
-0.00354162
-0.00392404
-0.00441195
-0.00483275
-0.00508939
-0.00516329
-0.00114174
-0.00122637
-0.00142872
-0.00168089
-0.00188582
-0.00203738
-0.00213957
-0.00225456
-0.00243901
-0.00259257
-0.00269404
-0.00289149
-0.00320975
-0.0035206
-0.00381064
-0.00418667
-0.00465499
-0.00507773
-0.00535258
-0.00544388
-0.00119232
-0.00127993
-0.0014864
-0.00174262
-0.00196872
-0.00214728
-0.00226772
-0.00238493
-0.00256745
-0.00274697
-0.00288791
-0.00309791
-0.0034175
-0.00375256
-0.00407185
-0.00444741
-0.00489707
-0.00531779
-0.00560402
-0.00570824
-0.00124645
-0.00133721
-0.00154946
-0.00181136
-0.00205419
-0.00225701
-0.00239917
-0.00252385
-0.00270444
-0.00290152
-0.00307812
-0.00330544
-0.003627
-0.00398039
-0.00432464
-0.00470406
-0.0051385
-0.00555289
-0.00584654
-0.00595825
-0.00130458
-0.00139846
-0.00161726
-0.00188694
-0.00214405
-0.00236736
-0.00253192
-0.0026692
-0.00285042
-0.00305869
-0.00326383
-0.00351122
-0.00383729
-0.0042037
-0.00456918
-0.00495437
-0.00537795
-0.00578339
-0.0060804
-0.00619674
-0.00136705
-0.00146404
-0.00168954
-0.00196893
-0.00223927
-0.00247933
-0.00266539
-0.00281854
-0.00300332
-0.0032204
-0.00344682
-0.00371223
-0.00404597
-0.00442233
-0.00480515
-0.00519726
-0.0056127
-0.0060092
-0.00630569
-0.00642547
-0.00143414
-0.00153435
-0.00176638
-0.00205661
-0.00234005
-0.00259408
-0.00279965
-0.00297025
-0.00316112
-0.00338548
-0.00362897
-0.00390881
-0.00424995
-0.00463501
-0.00503124
-0.00543159
-0.00584125
-0.00622935
-0.00652295
-0.00664435
-0.00150602
-0.00160969
-0.00184808
-0.00214929
-0.00244603
-0.00271276
-0.00293518
-0.00312303
-0.00332258
-0.00355258
-0.00380918
-0.00410174
-0.00444831
-0.00483981
-0.00524611
-0.00565454
-0.00606184
-0.00644215
-0.00673184
-0.00685276
-0.00158291
-0.00169034
-0.00193488
-0.00224658
-0.00255682
-0.0028359
-0.00307265
-0.00327599
-0.00348591
-0.00372162
-0.00398621
-0.00428915
-0.00464068
-0.00503541
-0.00544878
-0.00586347
-0.00627077
-0.00664514
-0.00693077
-0.00704998
-0.00166507
-0.00177646
-0.00202703
-0.00234842
-0.00267194
-0.00296327
-0.0032128
-0.00342954
-0.00364913
-0.0038911
-0.00416061
-0.00446902
-0.00482444
-0.00522022
-0.00563782
-0.00605737
-0.00646511
-0.00683593
-0.00711799
-0.0072362
-0.00175271
-0.00186811
-0.00212466
-0.00245512
-0.00279118
-0.00309437
-0.0033555
-0.00358418
-0.00381196
-0.00405839
-0.0043316
-0.00464168
-0.00499694
-0.00539163
-0.00581064
-0.00623408
-0.00664252
-0.00701146
-0.0072917
-0.00741021
-0.00184595
-0.00196518
-0.00222777
-0.00256678
-0.00291451
-0.00322916
-0.00350061
-0.00373946
-0.0039746
-0.00422287
-0.00449666
-0.00480663
-0.00515745
-0.00554702
-0.00596407
-0.00638919
-0.00679875
-0.00716694
-0.00744765
-0.00756853
-0.001945
-0.00206774
-0.0023362
-0.00268341
-0.00304177
-0.00336744
-0.00364852
-0.00389535
-0.00413632
-0.00438517
-0.0046554
-0.00496147
-0.00530449
-0.00568361
-0.0060936
-0.00651684
-0.00692747
-0.00729639
-0.00757982
-0.00770596
-0.00204997
-0.00217577
-0.00244978
-0.00280487
-0.00317311
-0.00350898
-0.00379918
-0.00405281
-0.0042971
-0.00454471
-0.00480923
-0.00510584
-0.0054359
-0.00579881
-0.00619254
-0.00660667
-0.00701635
-0.0073884
-0.00767914
-0.00781691
-0.00216097
-0.00228927
-0.00256858
-0.00293052
-0.00330808
-0.00365415
-0.00395293
-0.00421275
-0.00445846
-0.00470132
-0.00495755
-0.00524036
-0.00555042
-0.00589038
-0.00625746
-0.00664818
-0.00704565
-0.00741717
-0.00771855
-0.00787954
-0.00227835
-0.00240916
-0.0026917
-0.00305977
-0.0034463
-0.0038026
-0.00411091
-0.00437713
-0.00462303
-0.00485743
-0.00509906
-0.00536179
-0.00564462
-0.00595312
-0.00628645
-0.00664033
-0.00700847
-0.00736177
-0.00765554
-0.00782995
-0.00240129
-0.0025336
-0.00281928
-0.0031931
-0.00358752
-0.00395365
-0.00427338
-0.00454962
-0.0047986
-0.00502252
-0.00523904
-0.00546848
-0.005708
-0.00596966
-0.00626257
-0.00658134
-0.00692027
-0.00724622
-0.0075178
-0.00766591
-0.00252809
-0.00266153
-0.00295254
-0.0033308
-0.0037296
-0.00410419
-0.00443774
-0.00473059
-0.00499517
-0.00522577
-0.00541767
-0.00557919
-0.00570874
-0.00582734
-0.00598929
-0.00622782
-0.00656109
-0.00697714
-0.00741609
-0.00778141
-0.00266102
-0.00279827
-0.00309087
-0.0034688
-0.00386775
-0.00424711
-0.00459369
-0.00491012
-0.00520247
-0.00547463
-0.00573756
-0.00597907
-0.00610686
-0.00604054
-0.0058812
-0.00575634
-0.00567718
-0.00562154
-0.00559062
-0.00563339
-0.00280313
-0.00294386
-0.00323393
-0.00360722
-0.00400277
-0.00438111
-0.00473419
-0.00506747
-0.00538018
-0.00561725
-0.0057063
-0.00566399
-0.00558502
-0.00554894
-0.00558036
-0.00567835
-0.00580926
-0.00596554
-0.00614403
-0.00637215
-0.00295638
-0.00307989
-0.00336864
-0.003746
-0.0041592
-0.00457004
-0.00493277
-0.00518742
-0.00532051
-0.00539239
-0.00546754
-0.0055696
-0.00568557
-0.00580788
-0.00588665
-0.00589552
-0.00584898
-0.00575045
-0.00566121
-0.00566693
-0.00314793
-0.00326247
-0.00347092
-0.00375826
-0.00409969
-0.00445308
-0.00477507
-0.0050348
-0.00523756
-0.00539004
-0.00550782
-0.00562338
-0.00573228
-0.00585681
-0.00604442
-0.00631365
-0.00668403
-0.00713004
-0.00760233
-0.00801601
-0.00332565
-0.00345919
-0.00362161
-0.0038453
-0.00413935
-0.00446915
-0.00479757
-0.00508445
-0.00531568
-0.00550218
-0.00563048
-0.00572921
-0.00581914
-0.00587235
-0.00589542
-0.0058759
-0.00581941
-0.00575263
-0.00572558
-0.00582952
-0.00341744
-0.00355094
-0.00374068
-0.00397237
-0.00423682
-0.00451478
-0.00479377
-0.00504449
-0.00524371
-0.00541563
-0.0055548
-0.005663
-0.00577726
-0.00588851
-0.00599924
-0.0061147
-0.00623019
-0.0063584
-0.00652026
-0.00677362
0.0246797
0.0154977
0.00464918
-0.00240993
-0.00502119
-0.00505487
-0.004614
-0.00466846
-0.00529563
-0.00618385
-0.00694401
-0.00736389
-0.00757597
-0.00782721
-0.00817754
-0.00859222
-0.00903506
-0.00938234
-0.00958419
-0.00978893
-0.0101147
-0.0105243
-0.0109263
-0.011264
-0.0115685
-0.0119251
-0.012356
-0.0128021
-0.0132132
-0.0136025
-0.014003
-0.01441
-0.0147896
-0.015139
-0.0154969
-0.0158836
-0.0162751
-0.0166482
-0.0170264
-0.0174408
-0.0178761
-0.0183025
-0.0187276
-0.0191732
-0.0196199
-0.0200421
-0.0204641
-0.0209067
-0.0213506
-0.02179
-0.0222583
-0.0227572
-0.023247
-0.0237374
-0.0242497
-0.0247487
-0.025236
-0.0257466
-0.0262711
-0.0268029
-0.0273573
-0.0279224
-0.0284852
-0.0290497
-0.0296223
-0.0302023
-0.0307963
-0.0314066
-0.0320302
-0.0326602
-0.0333
-0.0339466
-0.0346016
-0.0352677
-0.0359506
-0.0366459
-0.0373528
-0.0380688
-0.0387969
-0.0395383
-0.0402929
-0.0410582
-0.0418366
-0.0426297
-0.0434357
-0.0442555
-0.0450879
-0.0459332
-0.0467932
-0.0476679
-0.048556
-0.0494571
-0.0503735
-0.0513048
-0.0522507
-0.0532009
-0.0541738
-0.055139
-0.0560084
-0.0568937
0.0232321
0.0153457
0.00474389
-0.00229154
-0.00494591
-0.00501271
-0.00458431
-0.0046473
-0.00528119
-0.00617401
-0.00693715
-0.00735866
-0.00757129
-0.00782268
-0.00817313
-0.00858801
-0.00903138
-0.00937925
-0.00958128
-0.00978601
-0.0101119
-0.0105218
-0.0109242
-0.0112621
-0.0115667
-0.0119233
-0.0123543
-0.0128006
-0.0132119
-0.0136011
-0.0140017
-0.0144088
-0.0147885
-0.015138
-0.0154959
-0.0158827
-0.0162743
-0.0166474
-0.0170256
-0.01744
-0.0178754
-0.0183019
-0.018727
-0.0191726
-0.0196194
-0.0200416
-0.0204636
-0.0209063
-0.0213502
-0.0217896
-0.0222579
-0.0227568
-0.0232466
-0.023737
-0.0242493
-0.0247483
-0.0252356
-0.0257463
-0.0262708
-0.0268026
-0.027357
-0.0279222
-0.028485
-0.0290495
-0.029622
-0.0302021
-0.0307961
-0.0314064
-0.03203
-0.03266
-0.0332998
-0.0339465
-0.0346014
-0.0352675
-0.0359504
-0.0366457
-0.0373526
-0.0380687
-0.0387968
-0.0395382
-0.0402928
-0.0410581
-0.0418365
-0.0426295
-0.0434356
-0.0442554
-0.0450878
-0.0459331
-0.0467931
-0.0476678
-0.0485559
-0.049457
-0.0503734
-0.0513047
-0.0522506
-0.0532008
-0.0541737
-0.0551389
-0.0560083
-0.0568936
0.0221056
0.015296
0.00497691
-0.00205728
-0.00482231
-0.00496719
-0.00456146
-0.00462696
-0.00526278
-0.00615876
-0.00692535
-0.0073501
-0.00756538
-0.00781859
-0.00816976
-0.00858456
-0.00902797
-0.00937619
-0.00957846
-0.00978334
-0.0101094
-0.0105195
-0.0109221
-0.0112602
-0.011565
-0.0119217
-0.0123528
-0.0127993
-0.0132107
-0.0136
-0.0140007
-0.0144078
-0.0147876
-0.015137
-0.015495
-0.0158818
-0.0162735
-0.0166467
-0.0170249
-0.0174394
-0.0178748
-0.0183013
-0.0187264
-0.0191721
-0.0196189
-0.0200411
-0.0204631
-0.0209058
-0.0213498
-0.0217892
-0.0222575
-0.0227565
-0.0232463
-0.0237367
-0.024249
-0.0247481
-0.0252354
-0.025746
-0.0262706
-0.0268023
-0.0273568
-0.0279219
-0.0284847
-0.0290493
-0.0296218
-0.0302019
-0.0307959
-0.0314062
-0.0320298
-0.0326599
-0.0332997
-0.0339463
-0.0346013
-0.0352674
-0.0359503
-0.0366456
-0.0373525
-0.0380686
-0.0387967
-0.0395381
-0.0402927
-0.041058
-0.0418364
-0.0426294
-0.0434355
-0.0442553
-0.0450877
-0.045933
-0.0467931
-0.0476677
-0.0485558
-0.049457
-0.0503734
-0.0513046
-0.0522505
-0.0532007
-0.0541736
-0.0551389
-0.0560083
-0.0568936
0.0210577
0.0152074
0.00524508
-0.00177428
-0.0046658
-0.00491383
-0.0045356
-0.00460057
-0.00523719
-0.00613571
-0.00690457
-0.00733322
-0.00755422
-0.00781266
-0.00816646
-0.00858123
-0.00902376
-0.0093719
-0.00957499
-0.00978072
-0.010107
-0.0105169
-0.0109195
-0.0112579
-0.0115629
-0.0119198
-0.0123511
-0.0127977
-0.0132093
-0.0135988
-0.0139995
-0.0144067
-0.0147866
-0.0151361
-0.0154941
-0.015881
-0.0162727
-0.0166459
-0.0170242
-0.0174387
-0.0178741
-0.0183007
-0.0187259
-0.0191716
-0.0196184
-0.0200407
-0.0204627
-0.0209054
-0.0213494
-0.0217888
-0.0222571
-0.0227561
-0.023246
-0.0237364
-0.0242487
-0.0247478
-0.0252351
-0.0257457
-0.0262703
-0.0268021
-0.0273565
-0.0279217
-0.0284845
-0.0290491
-0.0296216
-0.0302017
-0.0307957
-0.031406
-0.0320296
-0.0326597
-0.0332995
-0.0339461
-0.0346011
-0.0352672
-0.0359501
-0.0366454
-0.0373524
-0.0380684
-0.0387965
-0.0395379
-0.0402926
-0.0410579
-0.0418363
-0.0426293
-0.0434354
-0.0442552
-0.0450876
-0.0459329
-0.046793
-0.0476676
-0.0485557
-0.0494569
-0.0503733
-0.0513046
-0.0522505
-0.0532007
-0.0541736
-0.0551388
-0.0560083
-0.0568937
0.0199853
0.0150344
0.00550929
-0.0014761
-0.00449728
-0.00485768
-0.00450919
-0.00457056
-0.00520586
-0.00610509
-0.00687406
-0.00730638
-0.0075355
-0.0078027
-0.00816187
-0.00857725
-0.00901793
-0.00936543
-0.00957025
-0.0097781
-0.0101049
-0.0105139
-0.010916
-0.0112548
-0.0115605
-0.0119176
-0.0123487
-0.0127954
-0.0132075
-0.0135974
-0.0139982
-0.0144054
-0.0147853
-0.0151349
-0.015493
-0.0158799
-0.0162717
-0.016645
-0.0170233
-0.0174378
-0.0178734
-0.0183
-0.0187252
-0.019171
-0.0196179
-0.0200401
-0.0204621
-0.0209049
-0.0213489
-0.0217883
-0.0222566
-0.0227557
-0.0232456
-0.023736
-0.0242484
-0.0247475
-0.0252347
-0.0257454
-0.02627
-0.0268018
-0.0273562
-0.0279214
-0.0284843
-0.0290488
-0.0296214
-0.0302015
-0.0307955
-0.0314058
-0.0320294
-0.0326595
-0.0332993
-0.033946
-0.034601
-0.0352671
-0.03595
-0.0366453
-0.0373522
-0.0380683
-0.0387964
-0.0395378
-0.0402925
-0.0410578
-0.0418362
-0.0426292
-0.0434353
-0.0442551
-0.0450875
-0.0459328
-0.0467929
-0.0476675
-0.0485556
-0.0494568
-0.0503732
-0.0513045
-0.0522504
-0.0532006
-0.0541735
-0.0551388
-0.0560084
-0.0568938
0.0188961
0.0147845
0.00576932
-0.00116464
-0.00431873
-0.00479908
-0.00448385
-0.00453978
-0.00517185
-0.00607063
-0.00683794
-0.00727273
-0.00751057
-0.00778839
-0.00815488
-0.00857164
-0.00900983
-0.00935636
-0.00956399
-0.00977542
-0.0101031
-0.0105106
-0.0109115
-0.011251
-0.0115579
-0.0119152
-0.0123456
-0.0127921
-0.0132048
-0.0135955
-0.0139966
-0.0144037
-0.0147836
-0.0151335
-0.0154918
-0.0158786
-0.0162703
-0.0166437
-0.0170221
-0.0174367
-0.0178723
-0.0182991
-0.0187244
-0.0191702
-0.0196172
-0.0200395
-0.0204615
-0.0209043
-0.0213483
-0.0217878
-0.0222561
-0.0227552
-0.0232451
-0.0237356
-0.024248
-0.0247471
-0.0252343
-0.025745
-0.0262697
-0.0268014
-0.0273559
-0.0279212
-0.028484
-0.0290486
-0.0296212
-0.0302012
-0.0307953
-0.0314056
-0.0320292
-0.0326593
-0.0332991
-0.0339458
-0.0346008
-0.0352669
-0.0359498
-0.0366451
-0.0373521
-0.0380681
-0.0387963
-0.0395377
-0.0402923
-0.0410576
-0.0418361
-0.0426291
-0.0434352
-0.044255
-0.0450874
-0.0459327
-0.0467928
-0.0476674
-0.0485555
-0.0494567
-0.0503731
-0.0513044
-0.0522503
-0.0532005
-0.0541734
-0.0551388
-0.0560085
-0.0568941
0.0178138
0.01447
0.00602553
-0.000839347
-0.00412937
-0.00473747
-0.00446009
-0.0045093
-0.00513622
-0.00603426
-0.00679961
-0.00723619
-0.00748243
-0.00777112
-0.0081455
-0.00856387
-0.00899928
-0.00934489
-0.00955638
-0.00977259
-0.0101015
-0.010507
-0.0109063
-0.0112467
-0.0115555
-0.011913
-0.0123421
-0.0127876
-0.013201
-0.0135928
-0.0139944
-0.0144013
-0.0147814
-0.0151319
-0.0154904
-0.0158771
-0.0162687
-0.0166423
-0.0170208
-0.0174353
-0.017871
-0.0182979
-0.0187234
-0.0191693
-0.0196163
-0.0200387
-0.0204608
-0.0209036
-0.0213476
-0.0217871
-0.0222555
-0.0227546
-0.0232446
-0.0237351
-0.0242475
-0.0247467
-0.0252339
-0.0257446
-0.0262693
-0.026801
-0.0273556
-0.0279208
-0.0284837
-0.0290483
-0.0296209
-0.0302009
-0.030795
-0.0314053
-0.032029
-0.0326591
-0.0332989
-0.0339456
-0.0346006
-0.0352667
-0.0359496
-0.0366449
-0.0373519
-0.038068
-0.0387961
-0.0395375
-0.0402922
-0.0410575
-0.0418359
-0.042629
-0.0434351
-0.0442548
-0.0450873
-0.0459326
-0.0467927
-0.0476673
-0.0485554
-0.0494566
-0.050373
-0.0513043
-0.0522502
-0.0532005
-0.0541734
-0.0551389
-0.0560087
-0.0568944
0.0167563
0.0140951
0.00627052
-0.000503579
-0.00392966
-0.00467269
-0.00443826
-0.0044797
-0.0050992
-0.00599627
-0.00676004
-0.0071984
-0.00745281
-0.00775214
-0.00813428
-0.0085542
-0.00898668
-0.00933158
-0.00954774
-0.00976957
-0.0100998
-0.0105029
-0.0109004
-0.0112421
-0.0115534
-0.0119114
-0.0123385
-0.0127825
-0.0131962
-0.0135894
-0.0139914
-0.0143981
-0.0147785
-0.0151298
-0.0154889
-0.0158755
-0.0162669
-0.0166406
-0.0170193
-0.0174337
-0.0178692
-0.0182963
-0.0187221
-0.0191681
-0.0196152
-0.0200378
-0.0204599
-0.0209027
-0.0213467
-0.0217863
-0.0222547
-0.0227539
-0.0232439
-0.0237345
-0.024247
-0.0247461
-0.0252334
-0.0257441
-0.0262688
-0.0268006
-0.0273552
-0.0279205
-0.0284833
-0.0290479
-0.0296205
-0.0302006
-0.0307947
-0.031405
-0.0320287
-0.0326588
-0.0332986
-0.0339453
-0.0346003
-0.0352664
-0.0359494
-0.0366447
-0.0373517
-0.0380678
-0.0387959
-0.0395373
-0.040292
-0.0410573
-0.0418358
-0.0426288
-0.0434349
-0.0442547
-0.0450871
-0.0459325
-0.0467925
-0.0476672
-0.0485553
-0.0494565
-0.0503729
-0.0513042
-0.0522501
-0.0532004
-0.0541733
-0.0551389
-0.0560089
-0.0568948
0.0157373
0.0136619
0.00649328
-0.00016171
-0.00371902
-0.00460303
-0.00441763
-0.00445121
-0.00506093
-0.00595657
-0.00671924
-0.0071596
-0.00742214
-0.00773201
-0.0081218
-0.00854315
-0.00897263
-0.00931694
-0.00953827
-0.0097663
-0.0100981
-0.0104985
-0.0108939
-0.0112371
-0.0115516
-0.0119103
-0.0123353
-0.0127772
-0.0131911
-0.0135852
-0.0139875
-0.0143939
-0.0147746
-0.0151272
-0.0154871
-0.0158735
-0.0162648
-0.0166389
-0.0170178
-0.0174319
-0.0178671
-0.0182944
-0.0187205
-0.0191665
-0.0196137
-0.0200366
-0.020459
-0.0209017
-0.0213457
-0.0217853
-0.0222537
-0.0227529
-0.0232431
-0.0237338
-0.0242463
-0.0247455
-0.0252328
-0.0257434
-0.0262681
-0.0268
-0.0273547
-0.02792
-0.0284829
-0.0290475
-0.0296201
-0.0302002
-0.0307943
-0.0314047
-0.0320284
-0.0326585
-0.0332983
-0.033945
-0.0346
-0.0352662
-0.0359491
-0.0366445
-0.0373515
-0.0380675
-0.0387957
-0.0395371
-0.0402918
-0.0410571
-0.0418356
-0.0426286
-0.0434347
-0.0442546
-0.045087
-0.0459323
-0.0467924
-0.0476671
-0.0485552
-0.0494564
-0.0503728
-0.0513041
-0.05225
-0.0532003
-0.0541732
-0.0551389
-0.0560092
-0.0568953
0.0147685
0.0131737
0.00668299
0.000183114
-0.00349511
-0.00452569
-0.00439713
-0.0044243
-0.00502196
-0.00591524
-0.00667714
-0.00711971
-0.00739045
-0.00771091
-0.00810836
-0.0085311
-0.00895744
-0.00930118
-0.009528
-0.00976269