/*--------------------------------*- C++ -*----------------------------------*\
| =========                 |                                                 |
| \\      /  F ield         | OpenFOAM: The Open Source CFD Toolbox           |
|  \\    /   O peration     | Version:  3.0.1                                 |
|   \\  /    A nd           | Web:      www.OpenFOAM.org                      |
|    \\/     M anipulation  |                                                 |
\*---------------------------------------------------------------------------*/
FoamFile
{
    version     2.0;
    format      ascii;
    class       surfaceScalarField;
    location    "2.8";
    object      phi;
}
// * * * * * * * * * * * * * * * * * * * * * * * * * * * * * * * * * * * * * //

dimensions      [0 3 -1 0 0 0 0];

internalField   nonuniform List<scalar> 
19000
(
1.18076e-06
4.12923e-07
1.14051e-06
-2.05611e-07
1.15191e-06
-3.07058e-07
1.20517e-06
-2.60582e-07
1.18048e-06
8.17812e-07
1.09163e-06
-1.62885e-07
1.14672e-06
4.98021e-07
1.12346e-06
-4.88752e-07
1.14223e-06
-5.91042e-07
1.17794e-06
-8.00452e-08
1.15622e-06
-1.83145e-07
1.16894e-06
1.86318e-07
1.16091e-06
3.27573e-07
1.13723e-06
3.26918e-07
1.13617e-06
6.01542e-07
1.1055e-06
5.41638e-08
1.12013e-06
3.89339e-07
1.09012e-06
-1.11459e-07
1.10529e-06
1.34875e-07
-2.95708e-07
1.0328e-06
1.23388e-06
4.03309e-07
1.19558e-06
-1.67318e-07
1.20649e-06
-3.17969e-07
1.25988e-06
-3.13971e-07
1.23307e-06
8.44625e-07
1.14835e-06
-7.8165e-08
1.19518e-06
4.51194e-07
1.178e-06
-4.71577e-07
1.19641e-06
-6.09455e-07
1.23543e-06
-1.19065e-07
1.21153e-06
-1.59247e-07
1.22762e-06
1.70235e-07
1.21391e-06
3.41276e-07
1.19865e-06
3.4218e-07
1.18368e-06
6.1651e-07
1.16907e-06
6.87814e-08
1.16319e-06
3.95214e-07
1.16163e-06
-1.09899e-07
1.14915e-06
1.47355e-07
-2.72399e-07
1.12584e-06
1.2887e-06
3.9739e-07
1.25635e-06
-1.34966e-07
1.26314e-06
-3.24762e-07
1.31267e-06
-3.63499e-07
1.28905e-06
8.68248e-07
1.21402e-06
-3.13228e-09
1.24825e-06
4.16963e-07
1.24397e-06
-4.67299e-07
1.25372e-06
-6.192e-07
1.29373e-06
-1.59078e-07
1.27046e-06
-1.35977e-07
1.28417e-06
1.56525e-07
1.2689e-06
3.56538e-07
1.25691e-06
3.54173e-07
1.24254e-06
6.30877e-07
1.2311e-06
8.02209e-08
1.23127e-06
3.95048e-07
1.22931e-06
-1.0794e-07
1.23041e-06
1.46259e-07
-2.46694e-07
1.2047e-06
1.3464e-06
3.95095e-07
1.32312e-06
-1.11688e-07
1.32327e-06
-3.2491e-07
1.36495e-06
-4.05185e-07
1.34901e-06
8.84196e-07
1.28812e-06
5.77587e-08
1.30839e-06
3.96689e-07
1.31681e-06
-4.75716e-07
1.31603e-06
-6.18421e-07
1.3518e-06
-1.94848e-07
1.3338e-06
-1.17982e-07
1.33752e-06
1.52805e-07
1.32518e-06
3.68881e-07
1.31305e-06
3.663e-07
1.30491e-06
6.39017e-07
1.29494e-06
9.02003e-08
1.30059e-06
3.89393e-07
1.29682e-06
-1.04175e-07
1.30333e-06
1.39755e-07
-2.17505e-07
1.27414e-06
1.40807e-06
3.95379e-07
1.39454e-06
-9.81626e-08
1.38767e-06
-3.18037e-07
1.41852e-06
-4.36037e-07
1.41316e-06
8.89558e-07
1.36794e-06
1.02982e-07
1.37653e-06
3.88095e-07
1.39156e-06
-4.90744e-07
1.38378e-06
-6.1064e-07
1.41132e-06
-2.22389e-07
1.40101e-06
-1.07668e-07
1.39443e-06
1.59379e-07
1.38332e-06
3.79991e-07
1.37239e-06
3.77237e-07
1.3704e-06
6.41001e-07
1.36303e-06
9.75676e-08
1.37251e-06
3.79912e-07
1.36732e-06
-9.89787e-08
1.37659e-06
1.30483e-07
-1.86806e-07
1.34589e-06
1.47444e-06
3.96615e-07
1.46899e-06
-9.27145e-08
1.45666e-06
-3.05703e-07
1.4757e-06
-4.55077e-07
1.48106e-06
8.84194e-07
1.45054e-06
1.33503e-07
1.45169e-06
3.86948e-07
1.46655e-06
-5.05605e-07
1.45573e-06
-5.99822e-07
1.47456e-06
-2.41215e-07
1.47001e-06
-1.03122e-07
1.45815e-06
1.7124e-07
1.44659e-06
3.91546e-07
1.43799e-06
3.85838e-07
1.44157e-06
6.37427e-07
1.43692e-06
1.02218e-07
1.4492e-06
3.6763e-07
1.44212e-06
-9.1896e-08
1.45284e-06
1.19765e-07
-1.55062e-07
1.42109e-06
1.54556e-06
3.97269e-07
1.54542e-06
-9.25698e-08
1.53002e-06
-2.90301e-07
1.5384e-06
-4.63464e-07
1.55208e-06
8.70514e-07
1.53394e-06
1.51647e-07
1.53179e-06
3.89102e-07
1.54233e-06
-5.1615e-07
1.53009e-06
-5.87586e-07
1.54185e-06
-2.52973e-07
1.53995e-06
-1.01224e-07
1.52762e-06
1.8357e-07
1.51672e-06
4.02455e-07
1.51091e-06
3.91647e-07
1.5188e-06
6.29532e-07
1.51599e-06
1.05025e-07
1.53013e-06
3.53498e-07
1.52049e-06
-8.22606e-08
1.53184e-06
1.08418e-07
-1.22566e-07
1.49934e-06
1.62092e-06
3.96479e-07
1.62348e-06
-9.51339e-08
1.60718e-06
-2.73994e-07
1.60754e-06
-4.63831e-07
1.626e-06
8.52053e-07
1.61741e-06
1.6024e-07
1.61497e-06
3.91542e-07
1.61991e-06
-5.21092e-07
1.60617e-06
-5.73845e-07
1.61264e-06
-2.59442e-07
1.61147e-06
-1.00052e-07
1.60123e-06
1.93807e-07
1.59291e-06
4.10776e-07
1.59032e-06
3.9424e-07
1.60121e-06
6.18637e-07
1.59891e-06
1.07325e-07
1.61415e-06
3.38259e-07
1.60163e-06
-6.97375e-08
1.6131e-06
9.69451e-08
-8.99205e-08
1.58046e-06
1.69989e-06
3.94165e-07
1.70338e-06
-9.86246e-08
1.68762e-06
-2.58232e-07
1.68298e-06
-4.59189e-07
1.70308e-06
8.31951e-07
1.70123e-06
1.62091e-07
1.70023e-06
3.92543e-07
1.70002e-06
-5.20881e-07
1.68454e-06
-5.58368e-07
1.68684e-06
-2.61744e-07
1.68569e-06
-9.89037e-08
1.67838e-06
2.01123e-07
1.6738e-06
4.1535e-07
1.67458e-06
3.93462e-07
1.68764e-06
6.05579e-07
1.68467e-06
1.10288e-07
1.7005e-06
3.22435e-07
1.68515e-06
-5.4388e-08
1.69634e-06
8.57496e-08
-5.79564e-08
1.66438e-06
1.78218e-06
3.90707e-07
1.78565e-06
-1.0209e-07
1.77117e-06
-2.43758e-07
1.76396e-06
-4.51983e-07
1.78373e-06
8.12189e-07
1.78619e-06
1.5963e-07
1.78733e-06
3.91398e-07
1.78306e-06
-5.16606e-07
1.76615e-06
-5.41458e-07
1.76495e-06
-2.60549e-07
1.76364e-06
-9.75895e-08
1.75915e-06
2.05609e-07
1.75852e-06
4.15983e-07
1.76231e-06
3.89675e-07
1.77707e-06
5.90815e-07
1.77274e-06
1.14623e-07
1.78881e-06
3.06358e-07
1.77103e-06
-3.66014e-08
1.78153e-06
7.52503e-08
-2.75866e-08
1.75116e-06
1.8679e-06
3.86551e-07
1.87096e-06
-1.05149e-07
1.85799e-06
-2.30783e-07
1.8497e-06
-4.43697e-07
1.8683e-06
7.93591e-07
1.87321e-06
1.5472e-07
1.87659e-06
3.88023e-07
1.86934e-06
-5.09356e-07
1.85166e-06
-5.23784e-07
1.84754e-06
-2.56425e-07
1.84603e-06
-9.60785e-08
1.84381e-06
2.0782e-07
1.84669e-06
4.13106e-07
1.85275e-06
3.8362e-07
1.86892e-06
5.7464e-07
1.86296e-06
1.20589e-07
1.87908e-06
2.90232e-07
1.85951e-06
-1.70252e-08
1.86884e-06
6.59121e-08
3.04787e-10
1.84095e-06
1.9574e-06
3.81989e-07
1.95998e-06
-1.07726e-07
1.94836e-06
-2.19168e-07
1.93965e-06
-4.34984e-07
1.95707e-06
7.76172e-07
1.96315e-06
1.48638e-07
1.96854e-06
3.82635e-07
1.95915e-06
-4.99964e-07
1.94137e-06
-5.0601e-07
1.93489e-06
-2.49938e-07
1.93326e-06
-9.44518e-08
1.9326e-06
2.08483e-07
1.93827e-06
4.07435e-07
1.94572e-06
3.76168e-07
1.96307e-06
5.57291e-07
1.95556e-06
1.28097e-07
1.97155e-06
2.7424e-07
1.95101e-06
3.52083e-09
1.9587e-06
5.8223e-08
2.49631e-08
1.93404e-06
2.05104e-06
3.77135e-07
2.05318e-06
-1.09865e-07
2.0426e-06
-2.08582e-07
2.03362e-06
-4.26005e-07
2.05028e-06
7.59511e-07
2.05672e-06
1.42195e-07
2.06381e-06
3.75544e-07
2.05282e-06
-4.88968e-07
2.03541e-06
-4.88608e-07
2.02706e-06
-2.41581e-07
2.02549e-06
-9.28847e-08
2.02568e-06
2.08291e-07
2.0334e-06
3.9972e-07
2.04147e-06
3.6809e-07
2.05977e-06
5.38992e-07
2.05105e-06
1.36817e-07
2.06667e-06
2.58629e-07
2.04602e-06
2.41626e-08
2.05163e-06
5.26205e-08
4.58673e-08
2.03072e-06
2.14914e-06
3.71999e-07
2.15091e-06
-1.11634e-07
2.14097e-06
-1.98648e-07
2.13168e-06
-4.16711e-07
2.14816e-06
7.43025e-07
2.15448e-06
1.35883e-07
2.16297e-06
3.67052e-07
2.15066e-06
-4.7666e-07
2.13391e-06
-4.71861e-07
2.12402e-06
-2.31694e-07
2.12272e-06
-9.15773e-08
2.12322e-06
2.07786e-07
2.13233e-06
3.90615e-07
2.14049e-06
3.59925e-07
2.1595e-06
5.19984e-07
2.15006e-06
1.46255e-07
2.16496e-06
2.43728e-07
2.14506e-06
4.40631e-08
2.14829e-06
4.93907e-08
6.28341e-08
2.13132e-06
2.25194e-06
3.66549e-07
2.25338e-06
-1.13071e-07
2.24379e-06
-1.89062e-07
2.23408e-06
-4.07e-07
2.25094e-06
7.26161e-07
2.25683e-06
1.29999e-07
2.26648e-06
3.57401e-07
2.25298e-06
-4.63157e-07
2.23704e-06
-4.55925e-07
2.22581e-06
-2.20466e-07
2.22492e-06
-9.06866e-08
2.22539e-06
2.07316e-07
2.23536e-06
3.80643e-07
2.24336e-06
3.51931e-07
2.2628e-06
5.00535e-07
2.25319e-06
1.55873e-07
2.26703e-06
2.29885e-07
2.24854e-06
6.25516e-08
2.24939e-06
4.85435e-08
7.60708e-08
2.23615e-06
2.35967e-06
3.60753e-07
2.36078e-06
-1.14182e-07
2.35137e-06
-1.79652e-07
2.34114e-06
-3.96763e-07
2.3588e-06
7.08494e-07
2.36407e-06
1.24728e-07
2.37473e-06
3.4674e-07
2.36005e-06
-4.48475e-07
2.34502e-06
-4.40895e-07
2.33254e-06
-2.07985e-07
2.33215e-06
-9.02946e-08
2.33243e-06
2.07033e-07
2.34285e-06
3.70226e-07
2.35066e-06
3.4412e-07
2.37023e-06
4.80961e-07
2.36097e-06
1.65142e-07
2.37344e-06
2.17406e-07
2.35681e-06
7.91848e-08
2.35553e-06
4.98267e-08
8.60981e-08
2.3455e-06
2.47256e-06
3.54586e-07
2.47331e-06
-1.14935e-07
2.46405e-06
-1.70384e-07
2.45318e-06
-3.85898e-07
2.47192e-06
6.89755e-07
2.47645e-06
1.20195e-07
2.48806e-06
3.3513e-07
2.47216e-06
-4.32572e-07
2.4581e-06
-4.26832e-07
2.44442e-06
-1.94307e-07
2.44453e-06
-9.04025e-08
2.44465e-06
2.06909e-07
2.45517e-06
3.59714e-07
2.46295e-06
3.36335e-07
2.4823e-06
4.61612e-07
2.47383e-06
1.73612e-07
2.48476e-06
2.06476e-07
2.47012e-06
9.3821e-08
2.4671e-06
5.28499e-08
9.35159e-08
2.45968e-06
2.59085e-06
3.48031e-07
2.59119e-06
-1.15271e-07
2.58213e-06
-1.61331e-07
2.57054e-06
-3.74307e-07
2.59049e-06
6.69803e-07
2.59418e-06
1.16506e-07
2.60676e-06
3.22556e-07
2.58958e-06
-4.15398e-07
2.57652e-06
-4.13772e-07
2.56172e-06
-1.79505e-07
2.56225e-06
-9.0927e-08
2.56239e-06
2.06765e-07
2.57267e-06
3.49434e-07
2.5807e-06
3.28309e-07
2.59945e-06
4.42856e-07
2.59208e-06
1.80984e-07
2.60147e-06
1.97088e-07
2.58868e-06
1.06614e-07
2.58437e-06
5.7156e-08
9.88746e-08
2.57901e-06
2.71479e-06
3.4107e-07
2.71463e-06
-1.15115e-07
2.70593e-06
-1.52627e-07
2.69353e-06
-3.61903e-07
2.71475e-06
6.4858e-07
2.7175e-06
1.13752e-07
2.73109e-06
3.08971e-07
2.71261e-06
-3.96922e-07
2.70056e-06
-4.01716e-07
2.68474e-06
-1.63693e-07
2.68552e-06
-9.1703e-08
2.68597e-06
2.06312e-07
2.6957e-06
3.39707e-07
2.70425e-06
3.19756e-07
2.72211e-06
4.24997e-07
2.71593e-06
1.87167e-07
2.724e-06
1.8902e-07
2.71272e-06
1.17892e-07
2.70752e-06
6.23518e-08
1.02574e-07
2.70382e-06
2.84465e-06
3.33686e-07
2.84392e-06
-1.1438e-07
2.83572e-06
-1.44428e-07
2.82242e-06
-3.48605e-07
2.84494e-06
6.26064e-07
2.84667e-06
1.12018e-07
2.86131e-06
2.94336e-07
2.84154e-06
-3.77154e-07
2.83044e-06
-3.9062e-07
2.8138e-06
-1.47053e-07
2.81458e-06
-9.24784e-08
2.81568e-06
2.05203e-07
2.82457e-06
3.30826e-07
2.83387e-06
3.10452e-07
2.85067e-06
4.08195e-07
2.84554e-06
1.92296e-07
2.85265e-06
1.81912e-07
2.84257e-06
1.27973e-07
2.83673e-06
6.81972e-08
1.0487e-07
2.83443e-06
2.98072e-06
3.25859e-07
2.97932e-06
-1.12976e-07
2.97178e-06
-1.36887e-07
2.95751e-06
-3.3434e-07
2.98133e-06
6.02249e-07
2.98198e-06
1.11363e-07
2.99767e-06
2.7865e-07
2.97667e-06
-3.56159e-07
2.96643e-06
-3.8038e-07
2.94922e-06
-1.29835e-07
2.94967e-06
-9.29335e-08
2.9518e-06
2.03078e-07
2.95959e-06
3.2303e-07
2.96973e-06
3.00311e-07
2.98554e-06
3.92391e-07
2.98111e-06
1.96718e-07
2.98764e-06
1.75387e-07
2.97864e-06
1.36972e-07
2.97214e-06
7.46992e-08
1.05886e-07
2.97112e-06
3.12329e-06
3.1757e-07
3.12113e-06
-1.10811e-07
3.11439e-06
-1.30147e-07
3.0991e-06
-3.19046e-07
3.12421e-06
5.77138e-07
3.12375e-06
1.11816e-07
3.14044e-06
2.61963e-07
3.11835e-06
-3.34065e-07
3.10879e-06
-3.70826e-07
3.09132e-06
-1.12363e-07
3.09108e-06
-9.26976e-08
3.09456e-06
1.99606e-07
3.10112e-06
3.16471e-07
3.11202e-06
2.89406e-07
3.12707e-06
3.77343e-07
3.1229e-06
2.00888e-07
3.12911e-06
1.69178e-07
3.12133e-06
1.44745e-07
3.114e-06
8.2032e-08
1.05757e-07
3.11413e-06
3.27268e-06
3.08805e-07
3.26967e-06
-1.07801e-07
3.26385e-06
-1.24332e-07
3.24748e-06
-3.02673e-07
3.27387e-06
5.50751e-07
3.27232e-06
1.13357e-07
3.28989e-06
2.44392e-07
3.2669e-06
-3.11068e-07
3.25779e-06
-3.61722e-07
3.24045e-06
-9.50162e-08
3.23913e-06
-9.13785e-08
3.2442e-06
1.94532e-07
3.24951e-06
3.11159e-07
3.26093e-06
2.77994e-07
3.27557e-06
3.62695e-07
3.27127e-06
2.05194e-07
3.27721e-06
1.6324e-07
3.27096e-06
1.5099e-07
3.2627e-06
9.02949e-08
1.04804e-07
3.26365e-06
3.42918e-06
2.99553e-07
3.42525e-06
-1.03868e-07
3.42047e-06
-1.19555e-07
3.40299e-06
-2.85193e-07
3.4306e-06
5.23142e-07
3.42805e-06
1.15912e-07
3.44632e-06
2.26118e-07
3.42269e-06
-2.87437e-07
3.41373e-06
-3.52765e-07
3.39694e-06
-7.82214e-08
3.39417e-06
-8.86061e-08
3.40098e-06
1.87721e-07
3.40518e-06
3.06962e-07
3.41669e-06
2.66484e-07
3.43135e-06
3.48034e-07
3.42666e-06
2.09885e-07
3.43211e-06
1.57789e-07
3.42777e-06
1.55322e-07
3.41868e-06
9.93909e-08
1.03567e-07
3.41992e-06
3.59315e-06
2.8981e-07
3.58824e-06
-9.89499e-08
3.58458e-06
-1.15904e-07
3.566e-06
-2.66612e-07
3.59473e-06
4.94417e-07
3.5913e-06
1.19344e-07
3.61003e-06
2.07385e-07
3.58611e-06
-2.6352e-07
3.57695e-06
-3.43599e-07
3.56114e-06
-6.24114e-08
3.55662e-06
-8.40863e-08
3.56513e-06
1.79204e-07
3.5685e-06
3.03593e-07
3.57961e-06
2.55372e-07
3.59462e-06
3.33028e-07
3.58958e-06
2.1493e-07
3.59412e-06
1.53248e-07
3.59198e-06
1.5746e-07
3.58242e-06
1.08953e-07
1.02731e-07
3.58325e-06
3.76494e-06
2.7958e-07
3.75899e-06
-9.30013e-08
3.75653e-06
-1.13442e-07
3.7369e-06
-2.46984e-07
3.76657e-06
4.64744e-07
3.76246e-06
1.23449e-07
3.78134e-06
1.88508e-07
3.75755e-06
-2.39728e-07
3.7478e-06
-3.33845e-07
3.73337e-06
-4.79871e-08
3.72694e-06
-7.76588e-08
3.73694e-06
1.69205e-07
3.7399e-06
3.00635e-07
3.75006e-06
2.4521e-07
3.76567e-06
3.17423e-07
3.76052e-06
2.20079e-07
3.76367e-06
1.50103e-07
3.76377e-06
1.57361e-07
3.75435e-06
1.18372e-07
1.02992e-07
3.75409e-06
3.9449e-06
2.6887e-07
3.9379e-06
-8.59996e-08
3.93665e-06
-1.12195e-07
3.91608e-06
-2.26416e-07
3.94647e-06
4.34357e-07
3.94196e-06
1.27961e-07
3.9606e-06
1.69868e-07
3.93741e-06
-2.16542e-07
3.92667e-06
-3.23109e-07
3.91396e-06
-3.52773e-08
3.90563e-06
-6.93288e-08
3.91673e-06
1.5811e-07
3.91974e-06
2.97624e-07
3.9285e-06
2.36452e-07
3.94476e-06
3.01158e-07
3.93991e-06
2.24932e-07
3.9413e-06
1.48715e-07
3.94337e-06
1.55292e-07
3.93484e-06
1.26897e-07
1.0487e-07
3.93296e-06
4.13343e-06
2.57693e-07
4.12537e-06
-7.7947e-08
4.12532e-06
-1.1214e-07
4.10399e-06
-2.05086e-07
4.13479e-06
4.03556e-07
4.1302e-06
1.3255e-07
4.14816e-06
1.51906e-07
4.1261e-06
-1.94482e-07
4.11404e-06
-3.11043e-07
4.10321e-06
-2.44499e-08
4.09318e-06
-5.93008e-08
4.10487e-06
1.46424e-07
4.10835e-06
2.94139e-07
4.11543e-06
2.29378e-07
4.1322e-06
2.84387e-07
4.12811e-06
2.29017e-07
4.12757e-06
1.49264e-07
4.13109e-06
1.51763e-07
4.12416e-06
1.33834e-07
1.08489e-07
4.12054e-06
4.33093e-06
2.46068e-07
4.32185e-06
-6.88744e-08
4.32291e-06
-1.13198e-07
4.30107e-06
-1.83243e-07
4.33191e-06
3.72714e-07
4.32763e-06
1.36837e-07
4.34444e-06
1.35092e-07
4.32403e-06
-1.74075e-07
4.31039e-06
-2.97403e-07
4.30143e-06
-1.54847e-08
4.29002e-06
-4.78978e-08
4.30182e-06
1.34625e-07
4.30608e-06
2.89879e-07
4.31138e-06
2.24085e-07
4.32831e-06
2.67449e-07
4.32551e-06
2.31826e-07
4.32307e-06
1.51703e-07
4.32732e-06
1.47512e-07
4.32255e-06
1.38605e-07
1.13538e-07
4.3175e-06
4.53782e-06
2.34024e-07
4.52779e-06
-5.88501e-08
4.52982e-06
-1.15222e-07
4.50779e-06
-1.61216e-07
4.53824e-06
3.42262e-07
4.53468e-06
1.40399e-07
4.54985e-06
1.19918e-07
4.53157e-06
-1.55792e-07
4.5163e-06
-2.8213e-07
4.50895e-06
-8.14143e-09
4.4966e-06
-3.55457e-08
4.50806e-06
1.23167e-07
4.51329e-06
2.84644e-07
4.51686e-06
2.20523e-07
4.53352e-06
2.50786e-07
4.5324e-06
2.32949e-07
4.52836e-06
1.55741e-07
4.53254e-06
1.43331e-07
4.53021e-06
1.40935e-07
1.1928e-07
4.52447e-06
4.75454e-06
2.21602e-07
4.74367e-06
-4.79835e-08
4.74643e-06
-1.17982e-07
4.72463e-06
-1.39414e-07
4.75419e-06
3.12707e-07
4.75181e-06
1.42773e-07
4.76488e-06
1.06849e-07
4.74893e-06
-1.39842e-07
4.73231e-06
-2.65506e-07
4.72622e-06
-2.05437e-09
4.71333e-06
-2.26569e-08
4.72406e-06
1.12435e-07
4.73038e-06
2.78323e-07
4.73233e-06
2.18575e-07
4.7483e-06
2.34821e-07
4.74911e-06
2.32132e-07
4.74394e-06
1.60917e-07
4.74738e-06
1.39885e-07
4.74738e-06
1.40942e-07
1.24749e-07
4.74191e-06
4.98154e-06
2.08859e-07
4.96999e-06
-3.64335e-08
4.97318e-06
-1.21176e-07
4.95208e-06
-1.18308e-07
4.98019e-06
2.84592e-07
4.97949e-06
1.4348e-07
4.9901e-06
9.62389e-08
4.97633e-06
-1.26076e-07
4.95892e-06
-2.48097e-07
4.95373e-06
3.14021e-09
4.94063e-06
-9.56163e-09
4.95034e-06
1.02725e-07
4.95777e-06
2.70895e-07
4.95828e-06
2.18067e-07
4.97315e-06
2.19947e-07
4.97602e-06
2.2926e-07
4.97028e-06
1.66662e-07
4.97254e-06
1.37622e-07
4.97436e-06
1.39127e-07
1.29015e-07
4.97009e-06
5.2193e-06
1.95873e-07
5.20728e-06
-2.44133e-08
5.21051e-06
-1.24403e-07
5.19063e-06
-9.84306e-08
5.21675e-06
2.58478e-07
5.21815e-06
1.42081e-07
5.22626e-06
8.81238e-08
5.21419e-06
-1.14002e-07
5.19658e-06
-2.30495e-07
5.19202e-06
7.70146e-09
5.17895e-06
3.51561e-09
5.1874e-06
9.42736e-08
5.19588e-06
2.62408e-07
5.19519e-06
2.18762e-07
5.20856e-06
2.06572e-07
5.21354e-06
2.24287e-07
5.20782e-06
1.72377e-07
5.20872e-06
1.3672e-07
5.21158e-06
1.36266e-07
1.31432e-07
5.20917e-06
5.46832e-06
1.8274e-07
5.4561e-06
-1.21913e-08
5.45885e-06
-1.27154e-07
5.44079e-06
-8.03672e-08
5.4644e-06
2.34863e-07
5.46817e-06
1.38317e-07
5.47422e-06
8.20664e-08
5.46312e-06
-1.02902e-07
5.44574e-06
-2.13114e-07
5.44166e-06
1.17797e-08
5.42873e-06
1.64515e-08
5.43573e-06
8.72674e-08
5.44512e-06
2.53024e-07
5.44358e-06
2.20301e-07
5.45511e-06
1.95041e-07
5.46209e-06
2.17307e-07
5.45701e-06
1.77462e-07
5.45654e-06
1.3719e-07
5.45974e-06
1.33058e-07
1.3191e-07
5.45927e-06
5.72912e-06
1.69574e-07
5.717e-06
-7.14847e-11
5.71864e-06
-1.28788e-07
5.70304e-06
-6.47675e-08
5.72389e-06
2.14008e-07
5.72984e-06
1.32371e-07
5.73455e-06
7.73596e-08
5.7239e-06
-9.22521e-08
5.7069e-06
-1.96117e-07
5.70316e-06
1.55162e-08
5.69041e-06
2.92039e-08
5.6958e-06
8.18793e-08
5.70589e-06
2.42931e-07
5.70399e-06
2.22202e-07
5.71345e-06
1.85582e-07
5.72221e-06
2.08544e-07
5.71824e-06
1.81431e-07
5.7166e-06
1.38836e-07
5.71961e-06
1.30042e-07
1.308e-07
5.72072e-06
6.00227e-06
1.56501e-07
5.99058e-06
1.16136e-08
5.99023e-06
-1.28437e-07
5.97787e-06
-5.24056e-08
5.99614e-06
1.95732e-07
6.00351e-06
1.2501e-07
6.00758e-06
7.32894e-08
5.99717e-06
-8.18413e-08
5.98046e-06
-1.79414e-07
5.97687e-06
1.91073e-08
5.96427e-06
4.18067e-08
5.96792e-06
7.82291e-08
5.97868e-06
2.32175e-07
5.977e-06
2.23882e-07
5.98429e-06
1.78288e-07
5.99442e-06
1.98417e-07
5.99205e-06
1.83803e-07
5.98943e-06
1.41451e-07
5.99196e-06
1.27514e-07
1.28624e-07
5.99413e-06
6.28834e-06
1.43646e-07
6.27743e-06
2.25262e-08
6.27445e-06
-1.25458e-07
6.26561e-06
-4.35615e-08
6.28199e-06
1.7935e-07
6.28982e-06
1.17175e-07
6.29352e-06
6.95944e-08
6.28316e-06
-7.14875e-08
6.26634e-06
-1.62593e-07
6.26253e-06
2.29202e-08
6.25036e-06
5.39775e-08
6.25249e-06
7.60994e-08
6.26409e-06
2.20577e-07
6.26322e-06
2.24748e-07
6.2684e-06
1.73105e-07
6.2793e-06
1.8752e-07
6.2789e-06
1.84206e-07
6.27564e-06
1.44714e-07
6.27746e-06
1.25691e-07
1.25821e-07
6.28026e-06
6.58799e-06
1.31122e-07
6.57817e-06
3.23506e-08
6.57302e-06
-1.20309e-07
6.56663e-06
-3.7168e-08
6.58198e-06
1.63993e-07
6.58968e-06
1.09482e-07
6.59253e-06
6.67397e-08
6.58158e-06
-6.05325e-08
6.5644e-06
-1.4542e-07
6.56057e-06
2.6753e-08
6.54936e-06
6.51858e-08
6.55033e-06
7.51371e-08
6.56289e-06
2.0801e-07
6.56334e-06
2.24301e-07
6.56654e-06
1.69907e-07
6.57749e-06
1.76568e-07
6.5793e-06
1.82394e-07
6.5758e-06
1.48211e-07
6.57677e-06
1.2473e-07
1.22707e-07
6.57988e-06
6.90189e-06
1.19019e-07
6.89349e-06
4.07511e-08
6.88669e-06
-1.1351e-07
6.88168e-06
-3.21521e-08
6.89643e-06
1.49237e-07
6.90408e-06
1.01836e-07
6.90549e-06
6.53316e-08
6.89369e-06
-4.87333e-08
6.87681e-06
-1.28547e-07
6.87317e-06
3.03957e-08
6.86287e-06
7.54864e-08
6.86258e-06
7.54268e-08
6.87585e-06
1.94744e-07
6.87791e-06
2.22238e-07
6.87943e-06
1.6839e-07
6.88972e-06
1.66272e-07
6.89375e-06
1.78362e-07
6.89058e-06
1.5139e-07
6.89057e-06
1.24738e-07
1.19559e-07
6.89372e-06
7.23074e-06
1.0742e-07
7.22422e-06
4.72644e-08
7.21599e-06
-1.05279e-07
7.2117e-06
-2.78555e-08
7.22576e-06
1.35169e-07
7.23374e-06
9.38653e-08
7.23395e-06
6.51138e-08
7.2216e-06
-3.63803e-08
7.20496e-06
-1.11911e-07
7.20143e-06
3.39249e-08
7.19193e-06
8.49955e-08
7.19024e-06
7.71133e-08
7.2037e-06
1.81284e-07
7.20753e-06
2.18409e-07
7.20778e-06
1.68136e-07
7.21684e-06
1.57211e-07
7.22279e-06
1.72415e-07
7.22052e-06
1.5366e-07
7.21961e-06
1.25644e-07
1.1669e-07
7.22248e-06
7.57526e-06
9.63851e-08
7.57096e-06
5.15634e-08
7.56163e-06
-9.59466e-08
7.5577e-06
-2.39253e-08
7.57059e-06
1.22282e-07
7.57935e-06
8.5105e-08
7.57908e-06
6.53781e-08
7.56616e-06
-2.34571e-08
7.54933e-06
-9.5083e-08
7.54572e-06
3.75393e-08
7.53715e-06
9.35575e-08
7.53417e-06
8.0099e-08
7.54719e-06
1.68259e-07
7.55281e-06
2.12789e-07
7.55235e-06
1.68599e-07
7.5597e-06
1.49857e-07
7.56708e-06
1.65036e-07
7.56624e-06
1.54502e-07
7.5647e-06
1.27184e-07
1.14428e-07
7.56696e-06
7.93624e-06
8.59528e-08
7.93382e-06
5.39886e-08
7.92459e-06
-8.67195e-08
7.9206e-06
-1.99321e-08
7.93202e-06
1.10856e-07
7.94137e-06
7.57561e-08
7.94238e-06
6.43711e-08
7.92877e-06
-9.84679e-09
7.91036e-06
-7.667e-08
7.9065e-06
4.13952e-08
7.89918e-06
1.0088e-07
7.89517e-06
8.41095e-08
7.90714e-06
1.56284e-07
7.91442e-06
2.05513e-07
7.91382e-06
1.69198e-07
7.91931e-06
1.44366e-07
7.9274e-06
1.56946e-07
7.92831e-06
1.53588e-07
7.92661e-06
1.2889e-07
1.1298e-07
7.92806e-06
8.31448e-06
7.61519e-08
8.3133e-06
5.51701e-08
8.30532e-06
-7.87439e-08
8.30129e-06
-1.58947e-08
8.31118e-06
1.00962e-07
8.32001e-06
6.69286e-08
8.32284e-06
6.15447e-08
8.30796e-06
5.03005e-09
8.28805e-06
-5.67589e-08
8.28452e-06
4.49211e-08
8.27874e-06
1.06666e-07
8.27399e-06
8.88556e-08
8.28445e-06
1.45821e-07
8.29306e-06
1.96908e-07
8.29288e-06
1.69382e-07
8.2966e-06
1.40644e-07
8.30472e-06
1.48824e-07
8.3074e-06
1.50911e-07
8.30604e-06
1.3025e-07
1.12321e-07
8.30669e-06
8.71077e-06
6.70429e-08
8.71078e-06
5.5159e-08
8.70315e-06
-7.11097e-08
8.69982e-06
-1.25628e-08
8.70795e-06
9.28249e-08
8.71444e-06
6.04423e-08
8.71322e-06
6.27645e-08
8.6996e-06
1.86501e-08
8.68299e-06
-4.01527e-08
8.68075e-06
4.71601e-08
8.67659e-06
1.1083e-07
8.67139e-06
9.40532e-08
8.68007e-06
1.37141e-07
8.68957e-06
1.87407e-07
8.69024e-06
1.68717e-07
8.69248e-06
1.38402e-07
8.70006e-06
1.4124e-07
8.70426e-06
1.46715e-07
8.70366e-06
1.30848e-07
1.12204e-07
8.70378e-06
9.12599e-06
5.86737e-08
9.12739e-06
5.376e-08
9.11884e-06
-6.25598e-08
9.11485e-06
-8.57639e-09
9.11584e-06
9.18321e-08
9.11789e-06
5.8399e-08
9.12084e-06
5.98154e-08
9.11244e-06
2.70449e-08
9.09763e-06
-2.53368e-08
9.09599e-06
4.87995e-08
9.09345e-06
1.13362e-07
9.08811e-06
9.94008e-08
9.09499e-06
1.30262e-07
9.10492e-06
1.77475e-07
9.10667e-06
1.66967e-07
9.10787e-06
1.37201e-07
9.11448e-06
1.34628e-07
9.11978e-06
1.41413e-07
9.12023e-06
1.304e-07
1.12301e-07
9.12014e-06
9.56104e-06
5.10904e-08
9.56321e-06
5.15956e-08
9.55396e-06
-5.33121e-08
9.54993e-06
-4.54828e-09
9.55163e-06
9.01304e-08
9.55222e-06
5.78161e-08
9.55458e-06
5.74561e-08
9.54717e-06
3.44541e-08
9.5328e-06
-1.09703e-08
9.53112e-06
5.04808e-08
9.53002e-06
1.14463e-07
9.52499e-06
1.04432e-07
9.53018e-06
1.25062e-07
9.54002e-06
1.67638e-07
9.54292e-06
1.64066e-07
9.54359e-06
1.36534e-07
9.54899e-06
1.29225e-07
9.55495e-06
1.35457e-07
9.55656e-06
1.28791e-07
1.1227e-07
9.55659e-06
1.00169e-05
4.43262e-08
1.00193e-05
4.92151e-08
1.00101e-05
-4.41816e-08
1.0007e-05
-1.41157e-09
1.00088e-05
8.83237e-08
1.00079e-05
5.87008e-08
1.00094e-05
5.60138e-08
1.0003e-05
4.08163e-08
9.98929e-06
2.75417e-09
9.98708e-06
5.26886e-08
9.98718e-06
1.14368e-07
9.98287e-06
1.08743e-07
9.98662e-06
1.2131e-07
9.996e-06
1.58259e-07
9.99992e-06
1.60146e-07
1.00005e-05
1.35929e-07
1.00047e-05
1.25048e-07
1.00108e-05
1.29342e-07
1.00135e-05
1.26068e-07
1.11837e-07
1.0014e-05
1.04946e-05
3.84125e-08
1.04973e-05
4.64952e-08
1.04883e-05
-3.51809e-08
1.0486e-05
8.79364e-10
1.04878e-05
8.64692e-08
1.04858e-05
6.07561e-08
1.04861e-05
5.56834e-08
1.04807e-05
4.62569e-08
1.04679e-05
1.55048e-08
1.04651e-05
5.54907e-08
1.0466e-05
1.13444e-07
1.04627e-05
1.12121e-07
1.04652e-05
1.18756e-07
1.04739e-05
1.49586e-07
1.04787e-05
1.55371e-07
1.04795e-05
1.35045e-07
1.04827e-05
1.21926e-07
1.04885e-05
1.23501e-07
1.04922e-05
1.22415e-07
1.10801e-07
1.04932e-05
1.09951e-05
3.33563e-08
1.09981e-05
4.34254e-08
1.09893e-05
-2.63677e-08
1.09873e-05
2.87568e-09
1.09896e-05
8.42483e-08
1.09867e-05
6.35658e-08
1.09859e-05
5.65167e-08
1.09812e-05
5.09899e-08
1.09696e-05
2.7074e-08
1.09663e-05
5.87951e-08
1.09677e-05
1.12045e-07
1.09653e-05
1.14535e-07
1.0967e-05
1.17056e-07
1.09748e-05
1.41765e-07
1.09802e-05
1.4995e-07
1.09816e-05
1.33655e-07
1.0984e-05
1.19559e-07
1.09893e-05
1.1824e-07
1.09935e-05
1.18132e-07
1.09071e-07
1.09953e-05
1.15196e-05
2.91511e-08
1.1523e-05
4.00256e-08
1.15142e-05
-1.7642e-08
1.1512e-05
5.11519e-09
1.15148e-05
8.14018e-08
1.15118e-05
6.65668e-08
1.15099e-05
5.84398e-08
1.15057e-05
5.52565e-08
1.14953e-05
3.74175e-08
1.14917e-05
6.23963e-08
1.14934e-05
1.10389e-07
1.14919e-05
1.16014e-07
1.1493e-05
1.15937e-07
1.14999e-05
1.34858e-07
1.15057e-05
1.44134e-07
1.15077e-05
1.31646e-07
1.15097e-05
1.17635e-07
1.15142e-05
1.13701e-07
1.15188e-05
1.13539e-07
1.06675e-07
1.15212e-05
1.20692e-05
2.57716e-08
1.20727e-05
3.65202e-08
1.20641e-05
-9.00508e-09
1.20612e-05
8.02819e-09
1.20647e-05
7.78365e-08
1.20621e-05
6.91413e-08
1.20593e-05
6.12469e-08
1.20553e-05
5.92857e-08
1.20462e-05
4.65527e-08
1.20425e-05
6.61202e-08
1.20442e-05
1.08622e-07
1.20436e-05
1.16661e-07
1.20444e-05
1.15148e-07
1.20504e-05
1.28858e-07
1.20563e-05
1.38158e-07
1.2059e-05
1.28996e-07
1.20608e-05
1.15857e-07
1.20646e-05
1.09871e-07
1.20692e-05
1.08909e-07
1.03722e-07
1.20722e-05
1.26452e-05
2.31655e-08
1.26484e-05
3.33461e-08
1.26399e-05
-5.10849e-10
1.26363e-05
1.16395e-08
1.26404e-05
7.36874e-08
1.26387e-05
7.08481e-08
1.26354e-05
6.45898e-08
1.26314e-05
6.32638e-08
1.26234e-05
5.45775e-08
1.26197e-05
6.97937e-08
1.26215e-05
1.06856e-07
1.26216e-05
1.16557e-07
1.26222e-05
1.14492e-07
1.26274e-05
1.23695e-07
1.26333e-05
1.32246e-07
1.26365e-05
1.25758e-07
1.26384e-05
1.1397e-07
1.26416e-05
1.06646e-07
1.26461e-05
1.04469e-07
1.00351e-07
1.26495e-05
1.32489e-05
2.12387e-08
1.32512e-05
3.09572e-08
1.32435e-05
7.28428e-09
1.32392e-05
1.5896e-08
1.32434e-05
6.95298e-08
1.32427e-05
7.15207e-08
1.32392e-05
6.8037e-08
1.32352e-05
6.72833e-08
1.32281e-05
6.16503e-08
1.32246e-05
7.32932e-08
1.32264e-05
1.05142e-07
1.32271e-05
1.15807e-07
1.32278e-05
1.13805e-07
1.32322e-05
1.19292e-07
1.32379e-05
1.26542e-07
1.32416e-05
1.2205e-07
1.32438e-05
1.11802e-07
1.32466e-05
1.03839e-07
1.32507e-05
1.00382e-07
9.6701e-08
1.32543e-05
1.38815e-05
1.98575e-08
1.38834e-05
2.90944e-08
1.38765e-05
1.41813e-08
1.38717e-05
2.0747e-08
1.38751e-05
6.60717e-08
1.38753e-05
7.13052e-08
1.38722e-05
7.12094e-08
1.38681e-05
7.1295e-08
1.38619e-05
6.79299e-08
1.38586e-05
7.65809e-08
1.38602e-05
1.03507e-07
1.38615e-05
1.14494e-07
1.38624e-05
1.12949e-07
1.38662e-05
1.15516e-07
1.38715e-05
1.21188e-07
1.38755e-05
1.18021e-07
1.38781e-05
1.0928e-07
1.38807e-05
1.01225e-07
1.38844e-05
9.66931e-08
9.2921e-08
1.38881e-05
1.45446e-05
1.88902e-08
1.45458e-05
2.79171e-08
1.45401e-05
1.9925e-08
1.4535e-05
2.58371e-08
1.45373e-05
6.37356e-08
1.45381e-05
7.05647e-08
1.45354e-05
7.38596e-08
1.45316e-05
7.51329e-08
1.4526e-05
7.35222e-08
1.45229e-05
7.96568e-08
1.45244e-05
1.01987e-07
1.45262e-05
1.12712e-07
1.45273e-05
1.11818e-07
1.45306e-05
1.12214e-07
1.45356e-05
1.16247e-07
1.45397e-05
1.13845e-07
1.45426e-05
1.06396e-07
1.45452e-05
9.86245e-08
1.45486e-05
9.33621e-08
8.91718e-08
1.45523e-05
1.52396e-05
1.82161e-08
1.52402e-05
2.7243e-08
1.52355e-05
2.46449e-08
1.52305e-05
3.08869e-08
1.52315e-05
6.26642e-08
1.52324e-05
6.9739e-08
1.52303e-05
7.5893e-08
1.52269e-05
7.86026e-08
1.52219e-05
7.84652e-08
1.5219e-05
8.25277e-08
1.52204e-05
1.00608e-07
1.52226e-05
1.10579e-07
1.5224e-05
1.10362e-07
1.5227e-05
1.09259e-07
1.52315e-05
1.11678e-07
1.52357e-05
1.09656e-07
1.52389e-05
1.03218e-07
1.52416e-05
9.5894e-08
1.52447e-05
9.02984e-08
8.55737e-08
1.52483e-05
1.59678e-05
1.77424e-08
1.5968e-05
2.70126e-08
1.59642e-05
2.8506e-08
1.59594e-05
3.56138e-08
1.59594e-05
6.27343e-08
1.59599e-05
6.92564e-08
1.59584e-05
7.73531e-08
1.59555e-05
8.14983e-08
1.59512e-05
8.27812e-08
1.59485e-05
8.5172e-08
1.59498e-05
9.93872e-08
1.59521e-05
1.0823e-07
1.59539e-05
1.08552e-07
1.59566e-05
1.06536e-07
1.59609e-05
1.07449e-07
1.5965e-05
1.05495e-07
1.59684e-05
9.98741e-08
1.59713e-05
9.29525e-08
1.59743e-05
8.73663e-08
8.21969e-08
1.59776e-05
1.67309e-05
1.74164e-08
1.67306e-05
2.73198e-08
1.67275e-05
3.16512e-08
1.67234e-05
3.97331e-08
1.67224e-05
6.36722e-08
1.67223e-05
6.93783e-08
1.67212e-05
7.84073e-08
1.6719e-05
8.37326e-08
1.67154e-05
8.641e-08
1.6713e-05
8.75634e-08
1.6714e-05
9.8347e-08
1.67165e-05
1.05762e-07
1.67186e-05
1.06418e-07
1.67213e-05
1.03885e-07
1.67252e-05
1.03556e-07
1.67293e-05
1.01375e-07
1.67327e-05
9.64517e-08
1.67358e-05
8.98512e-08
1.67388e-05
8.43945e-08
7.90511e-08
1.67419e-05
1.75306e-05
1.72055e-08
1.75299e-05
2.79499e-08
1.75272e-05
3.44052e-08
1.75237e-05
4.32013e-08
1.75222e-05
6.51527e-08
1.75215e-05
7.01437e-08
1.75206e-05
7.93009e-08
1.7519e-05
8.53584e-08
1.75161e-05
8.92488e-08
1.7514e-05
8.96526e-08
1.75149e-05
9.74849e-08
1.75174e-05
1.03258e-07
1.75198e-05
1.04041e-07
1.75225e-05
1.01182e-07
1.75261e-05
9.99318e-08
1.75301e-05
9.73623e-08
1.75336e-05
9.29311e-08
1.75368e-05
8.67009e-08
1.75399e-05
8.12849e-08
7.60437e-08
1.75429e-05
1.83684e-05
1.71059e-08
1.83676e-05
2.88405e-08
1.8365e-05
3.69303e-08
1.83622e-05
4.60643e-08
1.83605e-05
6.68363e-08
1.83592e-05
7.14476e-08
1.83582e-05
8.02697e-08
1.83571e-05
8.64762e-08
1.8355e-05
9.12921e-08
1.83534e-05
9.13424e-08
1.83541e-05
9.67509e-08
1.83565e-05
1.00807e-07
1.83591e-05
1.01485e-07
1.83619e-05
9.84247e-08
1.83654e-05
9.64357e-08
1.83692e-05
9.35028e-08
1.83728e-05
8.93063e-08
1.8376e-05
8.35168e-08
1.83792e-05
7.81043e-08
7.30237e-08
1.83822e-05
1.92464e-05
1.71204e-08
1.92453e-05
2.98693e-08
1.92429e-05
3.93795e-08
1.92405e-05
4.84647e-08
1.92389e-05
6.84512e-08
1.92372e-05
7.31088e-08
1.9236e-05
8.14434e-08
1.92353e-05
8.72266e-08
1.9234e-05
9.26264e-08
1.92328e-05
9.25449e-08
1.92334e-05
9.60697e-08
1.92358e-05
9.84714e-08