/*--------------------------------*- C++ -*----------------------------------*\
| =========                 |                                                 |
| \\      /  F ield         | OpenFOAM: The Open Source CFD Toolbox           |
|  \\    /   O peration     | Version:  3.0.1                                 |
|   \\  /    A nd           | Web:      www.OpenFOAM.org                      |
|    \\/     M anipulation  |                                                 |
\*---------------------------------------------------------------------------*/
FoamFile
{
    version     2.0;
    format      ascii;
    class       volVectorField;
    location    "2.8";
    object      U;
}
// * * * * * * * * * * * * * * * * * * * * * * * * * * * * * * * * * * * * * //

dimensions      [0 1 -1 0 0 0 0];

internalField   nonuniform List<vector> 
9600
(
(0.885025 0.0042435 0)
(1.12528 -0.00256104 0)
(0.838622 -0.00357171 0)
(1.121 -0.00281837 0)
(0.952228 0.0114163 0)
(1.06215 -0.00350328 0)
(0.815979 0.00895422 0)
(1.1347 -0.00916992 0)
(0.801413 -0.011465 0)
(1.14026 -0.00106136 0)
(0.887169 -0.00465703 0)
(1.08318 0.00492847 0)
(0.922651 0.00903421 0)
(1.05839 0.00945101 0)
(0.89569 0.0198486 0)
(1.04176 0.00103202 0)
(0.860564 0.0154772 0)
(1.04237 -0.00537811 0)
(0.831103 0.00637248 0)
(1.04681 -0.0156919 0)
(0.891749 0.00410391 0)
(1.11415 -0.0020549 0)
(0.849858 -0.00370159 0)
(1.1095 -0.00373533 0)
(0.95706 0.0115673 0)
(1.05275 -0.00184271 0)
(0.831572 0.00799513 0)
(1.11011 -0.00870681 0)
(0.825544 -0.0118663 0)
(1.11684 -0.00216332 0)
(0.909626 -0.00406842 0)
(1.06462 0.00464975 0)
(0.944923 0.00918384 0)
(1.03361 0.0100711 0)
(0.92981 0.0199137 0)
(0.999551 0.00238303 0)
(0.916316 0.0153162 0)
(0.975348 -0.00486261 0)
(0.92613 0.00702048 0)
(0.945235 -0.0171112 0)
(0.905025 0.00400829 0)
(1.0957 -0.00162479 0)
(0.872199 -0.00384961 0)
(1.08748 -0.00444177 0)
(0.966265 0.012058 0)
(1.0397 -0.000550589 0)
(0.859773 0.00715107 0)
(1.07818 -0.00847142 0)
(0.869263 -0.012217 0)
(1.07684 -0.00301695 0)
(0.945277 -0.00341425 0)
(1.0334 0.00413394 0)
(0.970328 0.0096507 0)
(1.00577 0.0105661 0)
(0.956807 0.0204784 0)
(0.978064 0.00272511 0)
(0.945477 0.0152736 0)
(0.966583 -0.00446925 0)
(0.954143 0.00643266 0)
(0.957202 -0.0125751 0)
(0.922763 0.00396981 0)
(1.07377 -0.00132167 0)
(0.901903 -0.00389157 0)
(1.05986 -0.00501788 0)
(0.976789 0.0123958 0)
(1.0275 0.000475348 0)
(0.894029 0.00670387 0)
(1.04741 -0.00854358 0)
(0.916567 -0.0122798 0)
(1.03673 -0.00385709 0)
(0.976817 -0.00291041 0)
(1.00814 0.00384534 0)
(0.981981 0.0100813 0)
(0.988884 0.010898 0)
(0.966653 0.0209263 0)
(0.973176 0.00302602 0)
(0.957314 0.0153962 0)
(0.970076 -0.00458948 0)
(0.964861 0.0066214 0)
(0.966365 -0.0112248 0)
(0.941935 0.0039636 0)
(1.05244 -0.0011241 0)
(0.932629 -0.0038383 0)
(1.03322 -0.00549116 0)
(0.985432 0.0125391 0)
(1.01894 0.00129377 0)
(0.926874 0.00649487 0)
(1.02488 -0.00879943 0)
(0.953341 -0.0121571 0)
(1.00946 -0.00457079 0)
(0.995059 -0.00259214 0)
(0.996015 0.0039117 0)
(0.983463 0.0103876 0)
(0.980509 0.0112465 0)
(0.969634 0.0210961 0)
(0.974534 0.0033789 0)
(0.96483 0.0150783 0)
(0.975833 -0.00437626 0)
(0.972561 0.00628938 0)
(0.973454 -0.0099619 0)
(0.959604 0.00397527 0)
(1.03493 -0.00102389 0)
(0.95884 -0.00371601 0)
(1.01262 -0.0058172 0)
(0.990617 0.0125444 0)
(1.01446 0.00187716 0)
(0.953506 0.00643675 0)
(1.01257 -0.00909081 0)
(0.975687 -0.0119682 0)
(0.99634 -0.00506606 0)
(1.00179 -0.00243995 0)
(0.992389 0.00419527 0)
(0.982905 0.0107116 0)
(0.977382 0.0115564 0)
(0.972509 0.021081 0)
(0.97906 0.00359466 0)
(0.972407 0.0146058 0)
(0.982644 -0.00409149 0)
(0.979874 0.00578024 0)
(0.979871 -0.00846503 0)
(0.97382 0.00398894 0)
(1.0226 -0.000999637 0)
(0.977876 -0.0035457 0)
(0.999775 -0.00598426 0)
(0.992774 0.0124136 0)
(1.01258 0.00224088 0)
(0.972821 0.00646758 0)
(1.00807 -0.0093228 0)
(0.986918 -0.0117469 0)
(0.991763 -0.00537312 0)
(1.00225 -0.00238248 0)
(0.991445 0.00454098 0)
(0.983435 0.0110473 0)
(0.978151 0.0117793 0)
(0.977024 0.0208949 0)
(0.984983 0.00371018 0)
(0.980296 0.0140755 0)
(0.98927 -0.00371298 0)
(0.986612 0.0052437 0)
(0.985435 -0.00685882 0)
(0.98399 0.00399071 0)
(1.01493 -0.00101949 0)
(0.989905 -0.0033525 0)
(0.993502 -0.0060266 0)
(0.993407 0.0121756 0)
(1.01151 0.00243174 0)
(0.985984 0.00652248 0)
(1.00772 -0.00945584 0)
(0.991908 -0.0114909 0)
(0.990429 -0.00555109 0)
(1.00027 -0.00235376 0)
(0.990634 0.004845 0)
(0.984833 0.0113261 0)
(0.981257 0.0119043 0)
(0.982782 0.0205777 0)
(0.990983 0.00378851 0)
(0.987643 0.013501 0)
(0.994921 -0.00322738 0)
(0.992296 0.00470017 0)
(0.989996 -0.00521007 0)
(0.990613 0.00397535 0)
(1.01046 -0.00105678 0)
(0.996645 -0.00316061 0)
(0.991402 -0.00598894 0)
(0.993821 0.011888 0)
(1.01022 0.00249824 0)
(0.994692 0.00655842 0)
(1.00873 -0.00948881 0)
(0.99413 -0.0111987 0)
(0.989915 -0.00563541 0)
(0.997758 -0.00232769 0)
(0.989605 0.00506952 0)
(0.986445 0.0115108 0)
(0.98512 0.0119272 0)
(0.988718 0.0201724 0)
(0.996315 0.0038834 0)
(0.993785 0.0128845 0)
(0.999316 -0.00262567 0)
(0.996685 0.00416458 0)
(0.993532 -0.00357408 0)
(0.994668 0.00394552 0)
(1.00777 -0.00109754 0)
(1.00007 -0.00298122 0)
(0.991353 -0.00590639 0)
(0.994526 0.0115953 0)
(1.00858 0.00248278 0)
(1.00031 0.00655864 0)
(1.00973 -0.00943971 0)
(0.99531 -0.0108757 0)
(0.989689 -0.00564292 0)
(0.99555 -0.00230025 0)
(0.988615 0.00521587 0)
(0.987952 0.0115855 0)
(0.988741 0.0118478 0)
(0.993911 0.0197088 0)
(1.00057 0.00402201 0)
(0.998456 0.0122423 0)
(1.00245 -0.00190668 0)
(0.999794 0.00366254 0)
(0.996093 -0.00200787 0)
(0.997084 0.00390638 0)
(1.00601 -0.00113498 0)
(1.00172 -0.00281838 0)
(0.992043 -0.00580349 0)
(0.995431 0.0113188 0)
(1.00686 0.00241853 0)
(1.00378 0.0065205 0)
(1.0103 -0.00933098 0)
(0.996081 -0.0105309 0)
(0.989748 -0.00558249 0)
(0.993984 -0.00226718 0)
(0.987888 0.00529567 0)
(0.989236 0.0115503 0)
(0.991673 0.0116876 0)
(0.997886 0.0191962 0)
(1.00361 0.00421562 0)
(1.00168 0.0115968 0)
(1.00446 -0.00109583 0)
(1.00181 0.00320869 0)
(0.997804 -0.00056389 0)
(0.998513 0.00386204 0)
(1.00482 -0.00116632 0)
(1.00249 -0.00267328 0)
(0.992834 -0.00569318 0)
(0.996291 0.0110635 0)
(1.00537 0.0023283 0)
(1.00576 0.00644665 0)
(1.01049 -0.00917965 0)
(0.996627 -0.0101773 0)
(0.990038 -0.00546497 0)
(0.993109 -0.00222895 0)
(0.987507 0.00532482 0)
(0.990265 0.0114222 0)
(0.993815 0.0114801 0)
(1.00057 0.0186325 0)
(1.00551 0.00446432 0)
(1.00365 0.0109608 0)
(1.00556 -0.000233382 0)
(1.003 0.00280698 0)
(0.998855 0.000720466 0)
(0.999342 0.00381464 0)
(1.00403 -0.00119214 0)
(1.00286 -0.0025425 0)
(0.993475 -0.00557889 0)
(0.99696 0.0108243 0)
(1.00426 0.00222894 0)
(1.00675 0.00634147 0)
(1.01044 -0.00899544 0)
(0.997016 -0.00982908 0)
(0.990429 -0.0053022 0)
(0.992795 -0.00219117 0)
(0.987437 0.0053222 0)
(0.991042 0.011229 0)
(0.995247 0.0112437 0)
(1.00214 0.0180347 0)
(1.0065 0.00475368 0)
(1.00468 0.010339 0)
(1.006 0.000639282 0)
(1.00363 0.00249883 0)
(0.999449 0.00184319 0)
(0.9998 0.00376459 0)
(1.00356 -0.0012134 0)
(1.00303 -0.00242136 0)
(0.993905 -0.00546087 0)
(0.997424 0.0105928 0)
(1.00354 0.00212959 0)
(1.00716 0.00620962 0)
(1.01024 -0.00878472 0)
(0.9973 -0.00949227 0)
(0.990807 -0.00510289 0)
(0.992847 -0.00215855 0)
(0.98758 0.00530787 0)
(0.991592 0.0109874 0)
(0.996121 0.0109998 0)
(1.00288 0.0174079 0)
(1.00683 0.00508572 0)
(1.00509 0.00974065 0)
(1.00601 0.00148784 0)
(1.00393 0.00230107 0)
(0.999771 0.0027832 0)
(1.00003 0.00371158 0)
(1.0033 -0.00123086 0)
(1.00312 -0.00230569 0)
(0.994153 -0.00533801 0)
(0.997734 0.0103599 0)
(1.00315 0.002035 0)
(1.00723 0.00605685 0)
(1.00997 -0.00855058 0)
(0.997525 -0.00916935 0)
(0.99112 -0.00487446 0)
(0.993094 -0.00213367 0)
(0.987838 0.00529386 0)
(0.991952 0.0107117 0)
(0.996602 0.0107634 0)
(1.00308 0.0167576 0)
(1.00676 0.00544073 0)
(1.00513 0.00917918 0)
(1.00577 0.00228636 0)
(1.00406 0.00221402 0)
(0.999961 0.00352914 0)
(1.00015 0.00365522 0)
(1.00317 -0.00124487 0)
(1.00315 -0.00219266 0)
(0.994285 -0.00520904 0)
(0.997948 0.0101184 0)
(1.00297 0.00194858 0)
(1.00715 0.00588707 0)
(1.00966 -0.0082946 0)
(0.997717 -0.00886386 0)
(0.991363 -0.00461652 0)
(0.993422 -0.00212093 0)
(0.988153 0.00528739 0)
(0.992182 0.0104189 0)
(0.99684 0.01053 0)
(1.00298 0.0161106 0)
(1.00646 0.00577764 0)
(1.005 0.00866556 0)
(1.00542 0.00301769 0)
(1.00412 0.002248 0)
(1.00011 0.00410941 0)
(1.0002 0.00359517 0)
(1.00309 -0.00125519 0)
(1.00315 -0.00208128 0)
(0.994374 -0.0050727 0)
(0.998107 0.00986325 0)
(1.0029 0.00187309 0)
(1.007 0.00570105 0)
(1.00932 -0.00801652 0)
(0.997887 -0.00857858 0)
(0.991559 -0.0043299 0)
(0.99377 -0.00211986 0)
(0.988499 0.00528878 0)
(0.992344 0.0101239 0)
(0.996963 0.0102983 0)
(1.00274 0.0154674 0)
(1.00607 0.00609359 0)
(1.00481 0.00822932 0)
(1.00505 0.0036732 0)
(1.00415 0.00236492 0)
(1.00026 0.0045464 0)
(1.00022 0.0035313 0)
(1.00303 -0.00126148 0)
(1.00312 -0.00197164 0)
(0.994474 -0.00492767 0)
(0.998234 0.00959077 0)
(1.00288 0.0018104 0)
(1.00681 0.00549845 0)
(1.00899 -0.00771555 0)
(0.998041 -0.00831191 0)
(0.991735 -0.00402198 0)
(0.994109 -0.00212954 0)
(0.988875 0.00529133 0)
(0.992488 0.0098276 0)
(0.997062 0.0100686 0)
(1.00247 0.0148423 0)
(1.00568 0.00636838 0)
(1.00462 0.00785711 0)
(1.0047 0.004246 0)
(1.00417 0.00253557 0)
(1.00044 0.0048693 0)
(1.00023 0.00346347 0)
(1.00298 -0.00126311 0)
(1.00308 -0.00186489 0)
(0.994617 -0.00477308 0)
(0.99834 0.00930055 0)
(1.00286 0.00176065 0)
(1.0066 0.0052794 0)
(1.00867 -0.00739034 0)
(0.998176 -0.00806619 0)
(0.991913 -0.00368967 0)
(0.99443 -0.00215036 0)
(0.989278 0.00529104 0)
(0.992635 0.00954146 0)
(0.997186 0.00982129 0)
(1.00222 0.0142484 0)
(1.00531 0.00659309 0)
(1.00445 0.00752364 0)
(1.00439 0.00475251 0)
(1.0042 0.00275142 0)
(1.00066 0.0050992 0)
(1.00021 0.00339149 0)
(1.00295 -0.0012587 0)
(1.003 -0.00176364 0)
(0.994811 -0.00460728 0)
(0.998425 0.00899262 0)
(1.00285 0.00172602 0)
(1.00636 0.00504266 0)
(1.00836 -0.00703854 0)
(0.99829 -0.00784222 0)
(0.992106 -0.00333545 0)
(0.994729 -0.00217287 0)
(0.989708 0.00527882 0)
(0.992786 0.00928332 0)
(0.99735 0.00954347 0)
(1.002 0.0136902 0)
(1.00498 0.00677942 0)
(1.00431 0.0072311 0)
(1.00412 0.00521181 0)
(1.00421 0.00299705 0)
(1.00091 0.00524755 0)
(1.00016 0.00331506 0)
(1.00294 -0.00124723 0)
(1.00288 -0.00166967 0)
(0.995053 -0.00442881 0)
(0.998489 0.00866505 0)
(1.00285 0.00171004 0)
(1.0061 0.00478652 0)
(1.00808 -0.00666401 0)
(0.998381 -0.00763231 0)
(0.992317 -0.00297341 0)
(0.995007 -0.00218999 0)
(0.990161 0.00523957 0)
(0.992934 0.00905445 0)
(0.997551 0.00924115 0)
(1.00181 0.0131718 0)
(1.00468 0.0069461 0)
(1.00418 0.00696804 0)
(1.00389 0.00562499 0)
(1.00419 0.00327694 0)
(1.0012 0.00532189 0)
(1.00009 0.00323417 0)
(1.00295 -0.00122825 0)
(1.00274 -0.001584 0)
(0.995332 -0.00423695 0)
(0.998532 0.00831835 0)
(1.00285 0.0017106 0)
(1.00582 0.0045154 0)
(1.00781 -0.00626957 0)
(0.998453 -0.0074398 0)
(0.992541 -0.00259652 0)
(0.995266 -0.00219432 0)
(0.990632 0.00516534 0)
(0.993072 0.00886289 0)
(0.997776 0.00891041 0)
(1.00164 0.0126773 0)
(1.00438 0.00710586 0)
(1.00407 0.00671122 0)
(1.00369 0.00599663 0)
(1.00415 0.0036059 0)
(1.00149 0.00533221 0)
(0.999988 0.00314866 0)
(1.00298 -0.00120048 0)
(1.00257 -0.00150885 0)
(0.995631 -0.00403094 0)
(0.998558 0.00795387 0)
(1.00285 0.00172751 0)
(1.00552 0.0042266 0)
(1.00754 -0.00585414 0)
(0.998513 -0.00726072 0)
(0.992772 -0.00221669 0)
(0.995507 -0.0021792 0)
(0.991116 0.00505006 0)
(0.993196 0.00870514 0)
(0.998009 0.00856158 0)
(1.00149 0.0121935 0)
(1.0041 0.00725837 0)
(1.00397 0.00645529 0)
(1.00352 0.0063109 0)
(1.00407 0.00397045 0)
(1.0018 0.00527996 0)
(0.999877 0.00305809 0)
(1.00302 -0.00116266 0)
(1.0024 -0.0014457 0)
(0.995934 -0.00381058 0)
(0.998575 0.00757083 0)
(1.00285 0.00176144 0)
(1.00522 0.00392313 0)
(1.00727 -0.00542646 0)
(0.99857 -0.00708397 0)
(0.993002 -0.0018498 0)
(0.995738 -0.00212684 0)
(0.991608 0.00488577 0)
(0.993312 0.00858167 0)
(0.998238 0.00820146 0)
(1.00137 0.0117115 0)
(1.00381 0.00741998 0)
(1.00388 0.00621796 0)
(1.00339 0.00653908 0)
(1.00395 0.00437986 0)
(1.0021 0.00519925 0)
(0.99977 0.00296275 0)
(1.00304 -0.00111467 0)
(1.00223 -0.00139545 0)
(0.99623 -0.00357565 0)
(0.998594 0.00717097 0)
(1.00284 0.00180891 0)
(1.00493 0.00361345 0)
(1.007 -0.00498996 0)
(0.998635 -0.00690809 0)
(0.993227 -0.00149493 0)
(0.99596 -0.00203411 0)
(0.992104 0.00467713 0)
(0.993425 0.00848837 0)
(0.998453 0.00784982 0)
(1.00128 0.0112235 0)
(1.00351 0.00759946 0)
(1.0038 0.00601167 0)
(1.00329 0.00667454 0)
(1.00382 0.00483619 0)
(1.00238 0.00512684 0)
(0.999679 0.00286237 0)
(1.00305 -0.00105508 0)
(1.00208 -0.00136012 0)
(0.996508 -0.00332654 0)
(0.998626 0.00675761 0)
(1.0028 0.00186782 0)
(1.00465 0.00329981 0)
(1.00671 -0.00455151 0)
(0.998714 -0.00672135 0)
(0.993446 -0.00116709 0)
(0.996179 -0.00190181 0)
(0.992602 0.00443125 0)
(0.99354 0.00840983 0)
(0.998644 0.00752935 0)
(1.00123 0.0107148 0)
(1.0032 0.00779255 0)
(1.00371 0.00585689 0)
(1.00323 0.00670425 0)
(1.00366 0.00530221 0)
(1.00262 0.00509646 0)
(0.999612 0.00275696 0)
(1.00303 -0.000983616 0)
(1.00196 -0.00133995 0)
(0.996766 -0.00306365 0)
(0.998676 0.00633085 0)
(1.00274 0.00193635 0)
(1.0044 0.00298342 0)
(1.0064 -0.00412064 0)
(0.998811 -0.00651847 0)
(0.99366 -0.000877809 0)
(0.996396 -0.00172309 0)
(0.993101 0.0041558 0)
(0.993664 0.0083318 0)
(0.998807 0.00723883 0)
(1.00123 0.0101811 0)
(1.0029 0.00798351 0)
(1.00361 0.00577264 0)
(1.00321 0.00663001 0)
(1.00351 0.00573898 0)
(1.0028 0.00515088 0)
(0.999572 0.00264683 0)
(1.00297 -0.000900963 0)
(1.00186 -0.00133346 0)
(0.997003 -0.00279087 0)
(0.998746 0.00589698 0)
(1.00266 0.00200719 0)
(1.00417 0.00267511 0)
(1.00609 -0.00371031 0)
(0.998923 -0.00628832 0)
(0.993873 -0.000631386 0)
(0.99661 -0.00150828 0)
(0.993603 0.00386318 0)
(0.993798 0.0082394 0)
(0.998939 0.00700111 0)
(1.00127 0.00962522 0)
(1.00261 0.00815547 0)
(1.0035 0.00576644 0)
(1.00323 0.00648556 0)
(1.00337 0.00611077 0)
(1.00292 0.00531297 0)
(0.999555 0.00253224 0)
(1.0029 -0.0008061 0)
(1.00178 -0.00134226 0)
(0.997222 -0.0025091 0)
(0.998834 0.00545901 0)
(1.00256 0.00207776 0)
(1.00395 0.00238485 0)
(1.00577 -0.00333281 0)
(0.999044 -0.00602327 0)
(0.994087 -0.00042336 0)
(0.996819 -0.00125542 0)
(0.994109 0.00356407 0)
(0.993947 0.00812705 0)
(0.999037 0.00682233 0)
(1.00136 0.00905785 0)
(1.00234 0.00828595 0)
(1.00336 0.00584047 0)
(1.00327 0.00630203 0)
(1.00327 0.00638315 0)
(1.00296 0.00558597 0)
(0.999556 0.00241252 0)
(1.0028 -0.000699063 0)
(1.00171 -0.00136227 0)
(0.997425 -0.00222575 0)
(0.998936 0.00502278 0)
(1.00246 0.00214188 0)
(1.00374 0.0021121 0)
(1.00545 -0.00298954 0)
(0.99917 -0.0057294 0)
(0.994306 -0.000251321 0)
(0.997019 -0.000970513 0)
(0.994619 0.00326756 0)
(0.994115 0.00799109 0)
(0.999101 0.00669059 0)
(1.00147 0.00849287 0)
(1.00211 0.00836208 0)
(1.00319 0.00598726 0)
(1.00333 0.00610515 0)
(1.00322 0.00652311 0)
(1.00295 0.00592188 0)
(0.999568 0.00228927 0)
(1.0027 -0.000583671 0)
(1.00165 -0.00139143 0)
(0.997617 -0.00193893 0)
(0.999046 0.00459648 0)
(1.00235 0.00218776 0)
(1.00353 0.00187778 0)
(1.00513 -0.00268621 0)
(0.999298 -0.00540921 0)
(0.99453 -0.000108854 0)
(0.997207 -0.00067295 0)
(0.995131 0.0029884 0)
(0.994306 0.00782749 0)
(0.999131 0.00661381 0)
(1.00161 0.00794555 0)
(1.00193 0.00836407 0)
(1.00299 0.00618529 0)
(1.00338 0.00593754 0)
(1.00322 0.00654019 0)
(1.00291 0.00625269 0)
(0.999585 0.00216248 0)
(1.00258 -0.000459233 0)
(1.00159 -0.00142886 0)
(0.997797 -0.00165772 0)
(0.999157 0.00418893 0)
(1.00225 0.00220975 0)
(1.00332 0.00168817 0)
(1.00482 -0.00242183 0)
(0.999424 -0.00506989 0)
(0.994761 1.39951e-05 0)
(0.997381 -0.0003697 0)
(0.995642 0.00273475 0)
(0.994524 0.00763611 0)
(0.99913 0.00658259 0)
(1.00175 0.00743266 0)
(1.00181 0.00829182 0)
(1.00276 0.00641335 0)
(1.00341 0.00582841 0)
(1.00328 0.00646004 0)
(1.00286 0.00651029 0)
(0.999606 0.00203215 0)
(1.00247 -0.000327391 0)
(1.00154 -0.00146914 0)
(0.997969 -0.0013899 0)
(0.999266 0.00380674 0)
(1.00214 0.00220014 0)
(1.00312 0.00153426 0)
(1.00451 -0.00218726 0)
(0.99955 -0.00472487 0)
(0.994998 0.000117319 0)
(0.997539 -6.3526e-05 0)
(0.996147 0.00250596 0)
(0.99477 0.00741195 0)
(0.999103 0.00658995 0)
(1.0019 0.00696155 0)
(1.00175 0.00814359 0)
(1.00253 0.00664596 0)
(1.00341 0.00578053 0)
(1.00337 0.00632265 0)
(1.00286 0.0066547 0)
(0.999628 0.00190005 0)
(1.00234 -0.000192432 0)
(1.00149 -0.00150838 0)
(0.998134 -0.00114109 0)
(0.99937 0.00346103 0)
(1.00204 0.00215398 0)
(1.00291 0.00142133 0)
(1.00421 -0.00197368 0)
(0.999674 -0.00438048 0)
(0.995244 0.00020964 0)
(0.997682 0.000243603 0)
(0.996642 0.00230647 0)
(0.995049 0.0071629 0)
(0.999054 0.00663136 0)
(1.00203 0.00654349 0)
(1.00174 0.0079183 0)
(1.00229 0.00686502 0)
(1.00336 0.00578992 0)
(1.00349 0.00617469 0)
(1.0029 0.00669224 0)
(0.99965 0.00176741 0)
(1.00221 -5.85601e-05 0)
(1.00145 -0.0015365 0)
(0.998293 -0.00092818 0)
(0.999467 0.00315728 0)
(1.00195 0.00207679 0)
(1.00271 0.00133322 0)
(1.00392 -0.00177377 0)
(0.999795 -0.00403984 0)
(0.995501 0.000294986 0)
(0.99781 0.000544051 0)
(0.99712 0.00213985 0)
(0.99536 0.00689423 0)
(0.998988 0.00669077 0)
(1.00214 0.00619655 0)
(1.0018 0.0076294 0)
(1.00208 0.00705276 0)
(1.00326 0.00584957 0)
(1.0036 0.00603577 0)
(1.00298 0.00664724 0)
(0.999672 0.00163428 0)
(1.00208 7.13137e-05 0)
(1.0014 -0.00154616 0)
(0.998446 -0.000750794 0)
(0.999558 0.00288836 0)
(1.00185 0.00197292 0)
(1.00251 0.00125596 0)
(1.00364 -0.00158054 0)
(0.999915 -0.00370641 0)
(0.995767 0.000374529 0)
(0.997925 0.000831981 0)
(0.997579 0.0020169 0)
(0.995707 0.00660155 0)
(0.998912 0.00675641 0)
(1.00221 0.00592726 0)
(1.0019 0.00727291 0)
(1.00189 0.00718248 0)
(1.00312 0.00595448 0)
(1.0037 0.00591203 0)
(1.00311 0.0065474 0)
(0.999693 0.00150289 0)
(1.00194 0.000193661 0)
(1.00134 -0.0015246 0)
(0.998595 -0.00061702 0)
(0.999641 0.00264771 0)
(1.00176 0.00185734 0)
(1.00231 0.00119203 0)
(1.00336 -0.00139409 0)
(1.00003 -0.00337639 0)
(0.996042 0.000451832 0)
(0.99803 0.00111474 0)
(0.998016 0.00193553 0)
(0.996086 0.00629051 0)
(0.998835 0.00681178 0)
(1.00225 0.0057379 0)
(1.00205 0.00687735 0)
(1.00176 0.00723774 0)
(1.00295 0.00609572 0)
(1.00376 0.00580853 0)
(1.00327 0.00641148 0)
(0.999714 0.00137635 0)
(1.00181 0.000305002 0)
(1.00129 -0.00146675 0)
(0.998738 -0.000520547 0)
(0.999718 0.00242309 0)
(1.00167 0.00174315 0)
(1.00212 0.00113875 0)
(1.00309 -0.00120767 0)
(1.00014 -0.00304679 0)
(0.996326 0.000533816 0)
(0.998127 0.00138998 0)
(0.998424 0.00189165 0)
(0.9965 0.00595416 0)
(0.998769 0.00683034 0)
(1.00223 0.00561616 0)
(1.00222 0.00646871 0)
(1.00168 0.0072003 0)
(1.00275 0.00625829 0)
(1.00379 0.00574081 0)
(1.00344 0.00624973 0)
(0.999735 0.00125137 0)
(1.00167 0.000407338 0)
(1.00123 -0.00138978 0)
(0.998874 -0.000447527 0)
(0.999788 0.00220263 0)
(1.00158 0.00162733 0)
(1.00194 0.00110341 0)
(1.00283 -0.00100435 0)
(1.00025 -0.00271898 0)
(0.99662 0.000616642 0)
(0.998215 0.00164967 0)
(0.998797 0.00188493 0)
(0.996937 0.00558788 0)
(0.998723 0.00679578 0)
(1.00217 0.00555159 0)
(1.00241 0.00607486 0)
(1.00168 0.00706921 0)
(1.00254 0.00642101 0)
(1.00376 0.00572549 0)
(1.00362 0.00607052 0)
(0.999755 0.00113063 0)
(1.00153 0.000490768 0)
(1.00117 -0.00129786 0)
(0.999001 -0.000390342 0)
(0.999853 0.00199185 0)
(1.0015 0.001505 0)
(1.00177 0.00108909 0)
(1.00258 -0.000774385 0)
(1.00036 -0.00238766 0)
(0.996925 0.000691173 0)
(0.998299 0.00188663 0)
(0.999127 0.00191381 0)
(0.997393 0.00519994 0)
(0.99871 0.00670346 0)
(1.00206 0.00554116 0)
(1.00259 0.00572448 0)
(1.00174 0.00685361 0)
(1.00234 0.00655004 0)
(1.00367 0.00576689 0)
(1.00378 0.00589576 0)
(0.999775 0.00101762 0)
(1.00139 0.000546796 0)
(1.0011 -0.00119151 0)
(0.999119 -0.000334398 0)
(0.999912 0.00180224 0)
(1.00143 0.00137007 0)
(1.00161 0.00109588 0)
(1.00234 -0.000531877 0)
(1.00046 -0.00205132 0)
(0.997238 0.000761645 0)
(0.998383 0.00210302 0)
(0.999413 0.00197907 0)
(0.997857 0.00481858 0)
(0.998742 0.0065516 0)
(1.00192 0.00556277 0)
(1.00274 0.00543603 0)
(1.00188 0.00657207 0)
(1.00219 0.00661568 0)
(1.00354 0.00585369 0)
(1.0039 0.0057574 0)
(0.999795 0.000912523 0)
(1.00126 0.000578583 0)
(1.00103 -0.00107683 0)
(0.999228 -0.000282555 0)
(0.999965 0.00163791 0)
(1.00136 0.00122017 0)
(1.00147 0.00109247 0)
(1.00211 -0.000278667 0)
(1.00055 -0.00169627 0)
(0.99756 0.000837186 0)
(0.998473 0.00229678 0)
(0.999654 0.00207511 0)
(0.99832 0.00446479 0)
(0.998824 0.00634521 0)
(1.00176 0.00558992 0)
(1.00286 0.00521667 0)
(1.00206 0.00625316 0)
(1.00209 0.00660267 0)
(1.00337 0.0059583 0)
(1.00397 0.00567507 0)
(0.999814 0.000812218 0)
(1.00113 0.000597795 0)
(1.00096 -0.000978485 0)
(0.99933 -0.000226845 0)
(1.00001 0.00147933 0)
(1.00131 0.00109591 0)
(1.00136 0.00105019 0)
(1.0019 -4.77849e-05 0)
(1.00063 -0.00132481 0)
(0.997882 0.000921024 0)
(0.998571 0.00245855 0)
(0.999852 0.00220362 0)
(0.99877 0.00414971 0)
(0.998959 0.00609085 0)
(1.0016 0.00560696 0)
(1.00293 0.00506253 0)
(1.00228 0.00592215 0)
(1.00207 0.00650853 0)
(1.0032 0.0060471 0)
(1.00397 0.00564573 0)
(0.999833 0.000714315 0)
(1.00101 0.000609125 0)
(1.0009 -0.000890539 0)
(0.999426 -0.000180582 0)
(1.00005 0.00136073 0)
(1.00125 0.00095395 0)
(1.00127 0.00102162 0)
(1.00172 0.000226355 0)
(1.0007 -0.000940221 0)
(0.998201 0.00101176 0)
(0.998678 0.00259377 0)
(1.00001 0.00235667 0)
(0.999198 0.00389115 0)
(0.999145 0.00580641 0)
(1.00146 0.00560454 0)
(1.00295 0.00497307 0)
(1.00251 0.00561053 0)
(1.00212 0.00634854 0)
(1.00304 0.00609991 0)
(1.00392 0.00565761 0)
(0.999852 0.000627987 0)
(1.00089 0.000599294 0)
(1.00083 -0.000791937 0)
(0.999516 -0.000135209 0)
(1.00009 0.0012986 0)
(1.00121 0.000880409 0)
(1.00121 0.00102313 0)
(1.00155 0.000446974 0)
(1.00075 -0.000630268 0)
(0.998509 0.00104845 0)
(0.9988 0.00266247 0)
(1.00014 0.00249698 0)
(0.999594 0.00368454 0)
(0.999377 0.00550121 0)
(1.00135 0.00556076 0)
(1.00294 0.00492561 0)
(1.00274 0.00532878 0)
(1.00224 0.00612858 0)
(1.00292 0.00609976 0)
(1.00382 0.00568389 0)
(0.99987 0.000550444 0)
(1.00078 0.000576519 0)
(1.00076 -0.000687095 0)
(0.999606 -8.37661e-05 0)
(1.00012 0.00127587 0)
(1.00117 0.000899075 0)
(1.00116 0.000983295 0)
(1.0014 0.000559271 0)
(1.0008 -0.000356123 0)
(0.99882 0.00105761 0)
(0.998948 0.00267115 0)
(1.00024 0.00260801 0)
(0.999954 0.0035162 0)
(0.999637 0.0051947 0)
(1.00127 0.00547727 0)
(1.00289 0.00490576 0)
(1.00295 0.00509567 0)
(1.00241 0.00586949 0)
(1.00285 0.00604277 0)
(1.00371 0.00570191 0)
(0.999887 0.000477798 0)
(1.00068 0.000551868 0)
(1.0007 -0.000581743 0)
(0.999697 -3.79262e-05 0)
(1.00016 0.00127113 0)
(1.00112 0.000895044 0)
(1.00112 0.000932751 0)
(1.00129 0.000687921 0)
(1.00084 -6.52879e-05 0)
(0.999115 0.00109359 0)
(0.999113 0.0026711 0)
(1.00034 0.00272565 0)
(1.00028 0.00340233 0)
(0.99992 0.00490881 0)
(1.00124 0.00536561 0)
(1.00282 0.00489979 0)
(1.00311 0.00492086 0)
(1.00262 0.00559827 0)
(1.00284 0.00592936 0)
(1.00359 0.00569697 0)
(0.999903 0.000414222 0)
(1.00058 0.000523034 0)
(1.00065 -0.000474451 0)
(0.999786 -1.88983e-06 0)
(1.00019 0.00124025 0)
(1.00107 0.000917464 0)
(1.00109 0.000923479 0)
(1.00119 0.000792005 0)
(1.00088 0.000186436 0)
(0.999399 0.00115046 0)
(0.999301 0.002665 0)
(1.00043 0.00283262 0)
(1.00056 0.0033253 0)
(1.00021 0.00463587 0)
(1.00125 0.00521554 0)
(1.00274 0.00488111 0)
(1.00323 0.00479056 0)
(1.00284 0.00533534 0)
(1.00289 0.00576535 0)
(1.0035 0.00565811 0)
(0.999918 0.000358851 0)
(1.00049 0.000491585 0)
(1.00059 -0.000364549 0)
(0.999872 1.94535e-05 0)
(1.00024 0.00120604 0)
(1.00103 0.00095981 0)
(1.00106 0.000930507 0)
(1.00112 0.000878409 0)
(1.00091 0.000428843 0)
(0.999669 0.00123461 0)
(0.9995 0.00264287 0)
(1.00051 0.00289776 0)
(1.00081 0.00326285 0)
(1.00051 0.00438223 0)
(1.00131 0.00503779 0)
(1.00267 0.00484645 0)
(1.00331 0.00470125 0)
(1.00306 0.00510221 0)
(1.003 0.00556913 0)
(1.00345 0.00558188 0)
(0.999933 0.000312335 0)
(1.00042 0.000456985 0)
(1.00054 -0.000259961 0)
(0.999955 4.56336e-05 0)
(1.00028 0.00116817 0)
(1.00098 0.00100633 0)
(1.00104 0.000958754 0)
(1.00107 0.000960058 0)
(1.00095 0.000643378 0)
(0.999919 0.00131243 0)
(0.999707 0.00260651 0)
(1.0006 0.00294108 0)
(1.00102 0.00322226 0)
(1.0008 0.00416034 0)
(1.00141 0.00484683 0)
(1.00261 0.00478892 0)
(1.00335 0.00463724 0)
(1.00326 0.00490076 0)
(1.00314 0.00535189 0)
(1.00343 0.00546338 0)
(0.999945 0.00027472 0)
(1.00035 0.000418588 0)
(1.00049 -0.000155703 0)
(1.00003 7.80052e-05 0)
(1.00034 0.00111734 0)
(1.00095 0.00104987 0)
(1.00103 0.00100495 0)
(1.00103 0.00103848 0)
(1.00099 0.000831894 0)
(1.00015 0.00138566 0)
(0.999921 0.00257001 0)
(1.00069 0.00297508 0)
(1.0012 0.00319764 0)
(1.00107 0.00396324 0)
(1.00154 0.00464608 0)
(1.00259 0.00469948 0)
(1.00337 0.00457723 0)
(1.00343 0.00473386 0)
(1.0033 0.00513397 0)
(1.00346 0.00531859 0)
(0.999957 0.000245333 0)
(1.00029 0.000380925 0)
(1.00045 -5.37507e-05 0)
(1.00011 0.000120254 0)
(1.0004 0.00105916 0)
(1.00092 0.00108476 0)
(1.00101 0.00106214 0)
(1.00101 0.00111383 0)
(1.00102 0.000998804 0)
(1.00037 0.00145912 0)
(1.00014 0.00252618 0)
(1.00079 0.00298759 0)
(1.00135 0.00318562 0)
(1.00133 0.00379523 0)
(1.00169 0.00444527 0)
(1.00259 0.00458655 0)
(1.00338 0.00451085 0)
(1.00356 0.00459994 0)
(1.00347 0.00492721 0)
(1.00352 0.0051547 0)
(0.999967 0.0002231 0)
(1.00024 0.000348054 0)
(1.00041 4.41109e-05 0)
(1.00017 0.000175738 0)
(1.00046 0.00099941 0)
(1.00091 0.00109855 0)
(1.001 0.0011202 0)
(1.001 0.00119087 0)
(1.00107 0.0011481 0)
(1.00057 0.00153575 0)
(1.00036 0.00248368 0)
(1.0009 0.00297626 0)
(1.00149 0.0031755 0)
(1.00156 0.00365637 0)
(1.00186 0.00424915 0)
(1.00263 0.00445557 0)
(1.00339 0.00442965 0)
(1.00367 0.00448018 0)
(1.00364 0.00473084 0)
(1.00361 0.00497019 0)
(0.999976 0.000206753 0)
(1.0002 0.000323241 0)
(1.00038 0.000132873 0)
(1.00022 0.000239731 0)
(1.00052 0.000946134 0)
(1.00091 0.00109376 0)
(1.001 0.00117434 0)
(1.001 0.00126924 0)
(1.00111 0.00128054 0)
(1.00075 0.00160579 0)
(1.00057 0.00244279 0)
(1.00102 0.00294761 0)
(1.00161 0.00315613 0)
(1.00177 0.00354208 0)
(1.00203 0.0040686 0)
(1.00268 0.00431436 0)
(1.0034 0.00433851 0)
(1.00375 0.00436995 0)
(1.00379 0.00455531 0)
(1.00372 0.00477931 0)
(0.999984 0.000194725 0)
(1.00017 0.000307555 0)
(1.00036 0.000207536 0)
(1.00027 0.000307436 0)
(1.00057 0.000906644 0)
(1.00092 0.00108021 0)
(1.00101 0.00121972 0)
(1.00101 0.00134438 0)
(1.00115 0.00140197 0)
(1.00092 0.00167118 0)
(1.00078 0.00240031 0)
(1.00115 0.00290858 0)
(1.00171 0.00313105 0)
(1.00195 0.00344286 0)
(1.00221 0.00390431 0)
(1.00276 0.00416243 0)
(1.00343 0.00423139 0)
(1.00381 0.00426337 0)
(1.00391 0.00439841 0)
(1.00384 0.00458987 0)
(0.999991 0.000186634 0)
(1.00015 0.000297582 0)
(1.00034 0.000268192 0)
(1.00031 0.000374971 0)
(1.00063 0.000885078 0)
(1.00094 0.00106599 0)
(1.00103 0.00125339 0)
(1.00103 0.0014111 0)
(1.00119 0.00151354 0)
(1.00107 0.00173935 0)
(1.00098 0.00235928 0)
(1.00128 0.00285391 0)
(1.00182 0.00310114 0)
(1.00211 0.00335451 0)
(1.00237 0.0037526 0)
(1.00286 0.00400872 0)
(1.00346 0.00410577 0)
(1.00387 0.00415229 0)
(1.00402 0.0042539 0)
(1.00397 0.00440434 0)
(0.999996 0.00018105 0)
(1.00013 0.000293391 0)
(1.00033 0.00031639 0)
(1.00034 0.000437956 0)
(1.00067 0.000882856 0)
(1.00096 0.00105672 0)
(1.00106 0.00127585 0)
(1.00106 0.0014657 0)
(1.00123 0.00160921 0)
(1.0012 0.00180597 0)
(1.00117 0.00232943 0)
(1.00143 0.00278595 0)
(1.00192 0.00305432 0)
(1.00225 0.00327327 0)
(1.00253 0.00361026 0)
(1.00295 0.00386209 0)
(1.00351 0.00397359 0)
(1.00392 0.00403091 0)
(1.0041 0.00411995 0)
(1.00408 0.00422758 0)
(1 0.000177075 0)
(1.00011 0.000294313 0)
(1.00033 0.000355926 0)
(1.00038 0.000494634 0)
(1.00071 0.000894964 0)
(1.00099 0.00105535 0)
(1.0011 0.00129227 0)
(1.0011 0.00150986 0)
(1.00127 0.00168919 0)
(1.00131 0.00186451 0)
(1.00134 0.00230896 0)
(1.00157 0.00271984 0)
(1.00202 0.00299015 0)
(1.00238 0.00319245 0)
(1.00267 0.00347827 0)
(1.00306 0.00371664 0)
(1.00357 0.00384295 0)
(1.00397 0.00389784 0)
(1.00416 0.00398687 0)
(1.00417 0.00406353 0)
(1.00001 0.000174194 0)
(1.0001 0.00030022 0)
(1.00033 0.000390234 0)
(1.00041 0.000541852 0)
(1.00074 0.000915151 0)
(1.00101 0.00106558 0)
(1.00115 0.00130633 0)
(1.00115 0.00153924 0)
(1.00132 0.00175353 0)
(1.00141 0.00191695 0)
(1.00149 0.00228873 0)
(1.00171 0.00265901 0)
(1.00212 0.0029229 0)
(1.00249 0.00310793 0)
(1.0028 0.0033562 0)
(1.00317 0.00356829 0)
(1.00362 0.00370907 0)
(1.00402 0.00376233 0)
(1.00422 0.00384592 0)
(1.00425 0.00391355 0)
(1.00001 0.000172503 0)
(1.00009 0.000309542 0)
(1.00033 0.000421458 0)
(1.00044 0.000579348 0)
(1.00077 0.000937689 0)
(1.00104 0.00108683 0)
(1.0012 0.00132322 0)
(1.00121 0.00155645 0)
(1.00138 0.00179804 0)
(1.0015 0.00196338 0)
(1.00162 0.00227339 0)
(1.00184 0.00259538 0)
(1.00222 0.00285497 0)
(1.0026 0.00302154 0)
(1.00292 0.00323837 0)
(1.00327 0.00342507 0)
(1.00369 0.00356657 0)
(1.00407 0.00362969 0)
(1.00428 0.00369824 0)
(1.00431 0.00376717 0)
(1.00001 0.000171795 0)
(1.00008 0.000320792 0)
(1.00033 0.000451729 0)
(1.00047 0.000610479 0)
(1.0008 0.000959085 0)
(1.00106 0.00111358 0)
(1.00124 0.00134503 0)
(1.00128 0.00157031 0)
(1.00144 0.00182433 0)
(1.00158 0.00199519 0)
(1.00174 0.00226674 0)
(1.00196 0.00253493 0)
(1.00232 0.00278001 0)
(1.00269 0.00293701 0)
(1.00303 0.00312201 0)
(1.00337 0.00328994 0)
(1.00375 0.00342095 0)
(1.00412 0.00349199 0)
(1.00433 0.00355077 0)
(1.00436 0.00361251 0)
(1.00002 0.000172434 0)
(1.00008 0.000332757 0)
(1.00034 0.000481663 0)
(1.0005 0.000637963 0)
(1.00083 0.000978602 0)
(1.00109 0.00114278 0)
(1.00129 0.00136982 0)
(1.00134 0.00158333 0)
(1.00151 0.00183979 0)
(1.00166 0.00200953 0)
(1.00184 0.00225534 0)
(1.00207 0.00248494 0)
(1.00241 0.00270114 0)
(1.00278 0.00285026 0)
(1.00312 0.00300808 0)
(1.00346 0.00315393 0)
(1.00382 0.00327793 0)
(1.00416 0.00334499 0)
(1.00438 0.00340415 0)
(1.00441 0.00345201 0)
(1.00002 0.000173939 0)
(1.00008 0.000344522 0)