/*--------------------------------*- C++ -*----------------------------------*\
| =========                 |                                                 |
| \\      /  F ield         | OpenFOAM: The Open Source CFD Toolbox           |
|  \\    /   O peration     | Version:  3.0.1                                 |
|   \\  /    A nd           | Web:      www.OpenFOAM.org                      |
|    \\/     M anipulation  |                                                 |
\*---------------------------------------------------------------------------*/
FoamFile
{
    version     2.0;
    format      ascii;
    class       volScalarField;
    location    "2.7";
    object      p;
}
// * * * * * * * * * * * * * * * * * * * * * * * * * * * * * * * * * * * * * //

dimensions      [0 2 -2 0 0 0 0];

internalField   nonuniform List<scalar> 
9600
(
-5.98484e-11
-0.000502875
-0.00127186
-0.000705854
0.000943987
0.000986164
-0.0009678
-0.000396243
-0.000275714
0.000218429
0.000998244
0.00304194
0.00380767
0.00412301
0.00578391
0.00649085
0.00902937
0.00952643
0.0130358
0.0191171
-3.16726e-07
-0.000505832
-0.0012664
-0.000697243
0.000931853
0.000894407
-0.000942527
-0.000395704
-0.000268894
0.000230774
0.00099124
0.00304287
0.00380496
0.00410743
0.00577981
0.00645311
0.00903793
0.00948484
0.0132058
0.0186462
-1.42316e-06
-0.000509005
-0.0012582
-0.000689526
0.000908266
0.000852596
-0.000923767
-0.000395549
-0.000254542
0.000240292
0.000984955
0.00304095
0.00379513
0.00408525
0.0057638
0.00641299
0.00903751
0.00944134
0.0132721
0.0180176
-3.23607e-06
-0.000511666
-0.00124853
-0.000684995
0.000884752
0.000814437
-0.000910856
-0.000394059
-0.000232731
0.000244319
0.000982967
0.00303363
0.00378416
0.00406253
0.00574507
0.0063713
0.00903517
0.00939616
0.0132756
0.0174898
-5.82421e-06
-0.000513681
-0.00123664
-0.000682383
0.000863861
0.00077925
-0.000900432
-0.000390412
-0.000204572
0.000243926
0.000984585
0.00302316
0.00377475
0.00403784
0.0057288
0.00632707
0.00903574
0.00935122
0.0132487
0.0170132
-9.17212e-06
-0.000514677
-0.00122213
-0.000681294
0.00084585
0.000747557
-0.000890317
-0.000384303
-0.000171728
0.000241
0.000987397
0.00301159
0.00376573
0.00401047
0.00571544
0.00628377
0.00903428
0.0093076
0.0131885
0.0165656
-1.30626e-05
-0.000514543
-0.00120538
-0.000681128
0.00083149
0.000718853
-0.000879039
-0.000375737
-0.000135566
0.000237653
0.000991154
0.00299997
0.00375667
0.0039807
0.00570542
0.0062426
0.00902646
0.00926674
0.0130879
0.0161406
-1.7229e-05
-0.000513475
-0.00118694
-0.00068097
0.000820577
0.000691965
-0.000865651
-0.00036506
-9.69261e-05
0.000235482
0.000995565
0.00298906
0.00374768
0.00394875
0.00569803
0.00620426
0.00900974
0.00922939
0.0129444
0.0157343
-2.1471e-05
-0.000511771
-0.00116721
-0.000680267
0.000811817
0.000665924
-0.000849807
-0.000352784
-5.62986e-05
0.000235285
0.00100049
0.00297919
0.00373874
0.00391478
0.00569143
0.00616976
0.00898167
0.00919526
0.0127573
0.0153426
-2.56802e-05
-0.000509708
-0.00114654
-0.000678938
0.000803843
0.000640132
-0.000831654
-0.000339472
-1.41109e-05
0.000237288
0.00100569
0.00297035
0.00372984
0.00387902
0.00568351
0.00613993
0.00893973
0.00916348
0.0125037
0.0149598
-2.98193e-05
-0.000507505
-0.00112512
-0.00067709
0.000795686
0.000614207
-0.000811507
-0.000325664
2.91624e-05
0.000241426
0.0010108
0.0029626
0.00372072
0.00384179
0.00567225
0.00611497
0.00888164
0.00913276
0.0122329
0.0145788
-3.38838e-05
-0.000505308
-0.0011031
-0.00067481
0.000786814
0.000587882
-0.000789715
-0.00031182
7.30638e-05
0.00024762
0.00101544
0.00295592
0.00371094
0.00380358
0.00565575
0.00609453
0.00880595
0.00910056
0.0119332
0.0141927
-3.78702e-05
-0.000503203
-0.00108054
-0.000672116
0.000777005
0.000560979
-0.000766607
-0.000298265
0.000117136
0.000255914
0.00101907
0.00295014
0.00370007
0.00376489
0.00563238
0.00607801
0.0087123
0.00906317
0.0116096
0.0137963
-4.17631e-05
-0.000501248
-0.00105748
-0.000668993
0.000766153
0.000533415
-0.000742406
-0.000285153
0.000160949
0.000266468
0.00102116
0.00294507
0.00368764
0.00372607
0.00560123
0.00606512
0.00860121
0.00901609
0.011268
0.0133862
-4.55392e-05
-0.000499489
-0.00103395
-0.000665433
0.000754217
0.000505223
-0.000717285
-0.000272487
0.000204097
0.0002795
0.00102491
0.00294064
0.00367322
0.0036873
0.00556186
0.00605265
0.0084742
0.0089548
0.0109134
0.0129614
-4.91701e-05
-0.000497967
-0.00100997
-0.000661447
0.000741208
0.000476522
-0.000691421
-0.000260156
0.000246133
0.000295273
0.00102191
0.0029367
0.00365656
0.00364855
0.00551392
0.00603856
0.00833335
0.00887604
0.0105497
0.0125222
-5.26264e-05
-0.000496717
-0.000985573
-0.000657039
0.000727132
0.000447474
-0.000665017
-0.000247954
0.000286559
0.000314102
0.00101595
0.00293297
0.0036375
0.00360953
0.00545781
0.00602098
0.00817983
0.00877584
0.0101807
0.0120696
-5.58772e-05
-0.000495775
-0.000960798
-0.000652206
0.000711961
0.000418279
-0.000638305
-0.000235618
0.000324882
0.000336249
0.00100684
0.00292906
0.00361618
0.00356937
0.00539447
0.00599754
0.00801376
0.00861922
0.00981016
0.0116044
-5.88909e-05
-0.000495169
-0.000935695
-0.000646929
0.000695636
0.000389171
-0.000611568
-0.000222875
0.000360643
0.000361895
0.000994512
0.00292447
0.00359303
0.00352674
0.00532499
0.00596652
0.00783635
0.00848165
0.00943935
0.0111272
-6.16384e-05
-0.00049492
-0.000910339
-0.000641152
0.000678059
0.000360416
-0.000585101
-0.000209508
0.00039339
0.000391119
0.00097915
0.00291839
0.00356854
0.00348048
0.00525033
0.00592697
0.00764817
0.00832547
0.00906905
0.0106393
-6.40965e-05
-0.000495032
-0.000884832
-0.000634778
0.000659103
0.000332284
-0.000559205
-0.000195306
0.000422728
0.000423839
0.000961166
0.00290964
0.00354363
0.00342927
0.0051702
0.00587892
0.00744848
0.00815088
0.00870223
0.0101415
-6.62515e-05
-0.000495474
-0.000859308
-0.000627683
0.000638631
0.000305044
-0.000534236
-0.000180026
0.000448426
0.000459714
0.0009413
0.00289676
0.00351926
0.00337193
0.00508407
0.00582328
0.00723578
0.00795787
0.00834254
0.00963493
-6.81098e-05
-0.000496175
-0.000833919
-0.000619716
0.000616488
0.000278955
-0.000510506
-0.000163646
0.000470312
0.000498261
0.00092063
0.00287818
0.00349616
0.00330811
0.00499107
0.00576149
0.00700906
0.007745
0.00799351
0.00912185
-6.96972e-05
-0.000497041
-0.00080883
-0.000610702
0.000592495
0.000254273
-0.000488291
-0.000146284
0.000488465
0.000538675
0.000900356
0.00285257
0.00347465
0.00323782
0.00488897
0.00569466
0.00676936
0.0075103
0.00765772
0.00860607
-7.10529e-05
-0.000497944
-0.000784254
-0.000600465
0.00056649
0.000231213
-0.000467789
-0.000128029
0.000503192
0.000579667
0.000881671
0.00281895
0.00345427
0.00316163
0.00477536
0.00562316
0.00651967
0.00725147
0.00733567
0.0080934
-7.22558e-05
-0.00049867
-0.00076043
-0.000588912
0.000538364
0.000209886
-0.000448949
-0.000109219
0.000514826
0.000620037
0.000865417
0.00277649
0.0034341
0.00308078
0.00464772
0.00554664
0.00626478
0.00696645
0.00702581
0.00759168
-7.34418e-05
-0.000498927
-0.000737563
-0.000576006
0.000508048
0.000190311
-0.000431681
-9.05186e-05
0.000524047
0.000658835
0.000852036
0.00272473
0.00341293
0.00299672
0.00450385
0.00546374
0.00601002
0.00665425
0.00672441
0.00711067
-7.47609e-05
-0.000498423
-0.000715851
-0.000561658
0.000475587
0.000172327
-0.000415781
-7.27591e-05
0.000531435
0.000695219
0.0008417
0.00266369
0.00338922
0.00291092
0.00434268
0.00537205
0.00576016
0.00631609
0.00642502
0.00666015
-7.63626e-05
-0.000496832
-0.000695498
-0.000545874
0.000441098
0.000155593
-0.00040053
-5.67129e-05
0.000537102
0.000728526
0.000834156
0.00259359
0.00336111
0.00282493
0.00416381
0.00526795
0.00551993
0.00595616
0.00611818
0.00624741
-7.84611e-05
-0.000493784
-0.000676609
-0.000528844
0.000404711
0.00013967
-0.000384986
-4.27768e-05
0.000540952
0.000758111
0.000828727
0.00251499
0.00332663
0.00273997
0.00396768
0.00514726
0.00529309
0.00558111
0.00579282
0.00587335
-8.12795e-05
-0.000488964
-0.000659181
-0.000510975
0.000366847
0.000123866
-0.0003685
-3.10458e-05
0.000542453
0.00078355
0.000824943
0.00242832
0.00328389
0.00265688
0.0037556
0.0050059
0.00508104
0.00520033
0.00544059
0.00553021
-8.50035e-05
-0.000482086
-0.00064319
-0.000492652
0.000328322
0.000107258
-0.000350837
-2.13203e-05
0.000540821
0.000804453
0.000822281
0.00233374
0.00323097
0.00257658
0.00352983
0.00484022
0.00488231
0.00482484
0.0050598
0.00520214
-8.98307e-05
-0.000472895
-0.000628467
-0.000474481
0.000290126
8.93165e-05
-0.000332188
-1.28285e-05
0.00053568
0.000819888
0.000819761
0.00223188
0.00316603
0.00249924
0.00329368
0.00464783
0.00469311
0.00446401
0.0046554
0.00486895
-9.59386e-05
-0.000461268
-0.000614498
-0.000457803
0.000253046
6.99776e-05
-0.000313543
-4.75081e-06
0.000527073
0.0008288
0.000816267
0.00212335
0.00308751
0.00242437
0.00305083
0.00442773
0.00450853
0.00412387
0.00423657
0.00451527
-0.000103448
-0.000447275
-0.000600467
-0.000443788
0.000217444
4.98293e-05
-0.00029616
2.97574e-06
0.000515174
0.000830234
0.000810412
0.00200852
0.00299442
0.00235162
0.002805
0.00417962
0.00432403
0.00380733
0.00381302
0.00413651
-0.000112395
-0.000431274
-0.000585425
-0.000432754
0.000183403
2.98611e-05
-0.00028096
9.81526e-06
0.000500242
0.000823446
0.000800462
0.00188778
0.00288597
0.00228045
0.00256067
0.00390464
0.00413442
0.0035146
0.00339231
0.00373634
-0.000122719
-0.00041402
-0.000568349
-0.000424938
0.000150301
1.08113e-05
-0.000268552
1.49015e-05
0.000482368
0.000807912
0.000784857
0.00176174
0.002762
0.00220981
0.00232258
0.00360492
0.00393329
0.00324554
0.00298072
0.00331967
-0.000134204
-0.000396565
-0.000548364
-0.000419269
0.000116591
-7.23082e-06
-0.00025886
1.72327e-05
0.000461315
0.00078338
0.000753082
0.00163156
0.00262308
0.00213765
0.00209487
0.00328365
0.00371396
0.0029997
0.0025847
0.00288972
-0.000146594
-0.000379785
-0.000525021
-0.00041455
8.08373e-05
-2.49031e-05
-0.000251479
1.5622e-05
0.000436838
0.000750983
0.000721565
0.00149874
0.0024698
0.00206077
0.00188055
0.00294566
0.00346951
0.00277342
0.00221202
0.0024506
-0.000159562
-0.000364414
-0.000498531
-0.000408958
4.26396e-05
-4.41054e-05
-0.000246788
9.15239e-06
0.000408702
0.000712301
0.000685949
0.00136437
0.00230316
0.00197568
0.00168045
0.00259725
0.00319535
0.00255955
0.00187025
0.00200908
-0.000172408
-0.000351137
-0.000469904
-0.000401757
2.24948e-06
-6.68006e-05
-0.000246116
-2.77767e-06
0.000376527
0.000668552
0.000645754
0.00122978
0.00212427
0.00187842
0.00149355
0.00224595
0.00289108
0.00234777
0.00156334
0.00157594
-0.000184324
-0.000340345
-0.000440751
-0.000388891
-3.9431e-05
-9.40952e-05
-0.000250534
-2.10722e-05
0.000339258
0.000620712
0.000602861
0.00109637
0.00193389
0.00176597
0.00131824
0.00189811
0.00255916
0.00212773
0.00128999
0.00116421
-0.000194822
-0.000331965
-0.000412702
-0.000371689
-8.05822e-05
-0.000126899
-0.000260908
-4.78601e-05
0.000294248
0.000569959
0.000560029
0.000966037
0.0017338
0.00163635
0.00115228
0.00155935
0.00220425
0.0018915
0.00104386
0.00078395
-0.000203889
-0.000324972
-0.000386829
-0.000351229
-0.000119343
-0.000165952
-0.000278592
-8.52246e-05
0.00024024
0.00051663
0.000516861
0.00084022
0.00152717
0.0014882
0.00099241
0.00123501
0.00183225
0.00163387
0.000815928
0.000440373
-0.000211339
-0.000318939
-0.000364356
-0.000329312
-0.000154748
-0.000209814
-0.000307552
-0.000132014
0.000180334
0.000458898
0.000471833
0.000718384
0.0013168
0.0013216
0.000834149
0.000928208
0.00145006
0.00135205
0.000596953
0.000133998
-0.000216702
-0.000313687
-0.000347103
-0.000310792
-0.000188536
-0.000258195
-0.000339667
-0.000177716
0.000116477
0.00039208
0.0004175
0.000598008
0.00110429
0.00113788
0.000672641
0.000639841
0.00106613
0.00104613
0.000377576
-0.000139325
-0.000220167
-0.000309006
-0.000336101
-0.000296884
-0.000219217
-0.000306434
-0.000374446
-0.000222358
4.81789e-05
0.000313963
0.00035171
0.000477132
0.000892314
0.000939739
0.000504605
0.000369085
0.000688435
0.000719399
0.000149927
-0.00038666
-0.000222149
-0.000304657
-0.000331178
-0.000288748
-0.000246882
-0.000353208
-0.000413271
-0.000270192
-2.46013e-05
0.000225404
0.000273037
0.000354694
0.00068381
0.000730731
0.000327873
0.000113412
0.000322695
0.000377316
-9.15379e-05
-0.000616605
-0.000222979
-0.00030024
-0.000331613
-0.000288211
-0.000272603
-0.000398037
-0.000456502
-0.000322711
-0.000100471
0.000128014
0.00018188
0.000228456
0.000478705
0.000514368
0.000141281
-0.000130823
-2.72214e-05
2.64574e-05
-0.000349707
-0.000838291
-0.00022325
-0.000295483
-0.000336268
-0.000296514
-0.000298479
-0.000440207
-0.00050357
-0.000380338
-0.000179115
2.55798e-05
7.9876e-05
9.64841e-05
0.000274842
0.000292746
-5.46513e-05
-0.000367288
-0.000359155
-0.00032601
-0.000624151
-0.00105936
-0.000223361
-0.000290391
-0.000344236
-0.000314469
-0.00032674
-0.00047878
-0.000552894
-0.000443523
-0.000261325
-8.05339e-05
-3.14798e-05
-4.1048e-05
7.11659e-05
6.64171e-05
-0.000258656
-0.000598442
-0.000672758
-0.000673111
-0.000911465
-0.00128525
-0.000223727
-0.000285284
-0.000354804
-0.000341778
-0.000358949
-0.000514963
-0.000603357
-0.00051223
-0.000348599
-0.000190875
-0.000150742
-0.000183772
-0.000131356
-0.000163319
-0.000470034
-0.0008264
-0.00097005
-0.00101061
-0.00120686
-0.00151861
-0.000224908
-0.000281057
-0.000366918
-0.000376407
-0.000396631
-0.000550788
-0.000654211
-0.000586004
-0.00044209
-0.000305281
-0.000276103
-0.000331575
-0.000332764
-0.000394497
-0.000688142
-0.00105321
-0.00125353
-0.00133633
-0.00150521
-0.00175881
-0.000227563
-0.00027897
-0.000379528
-0.000415697
-0.000440951
-0.000588273
-0.000705183
-0.000664004
-0.000542208
-0.000424869
-0.000406668
-0.000483191
-0.000533561
-0.000625938
-0.000910924
-0.00127965
-0.00152445
-0.00164873
-0.00180285
-0.00200449
-0.000232152
-0.000279831
-0.000392417
-0.000459589
-0.000492198
-0.000629801
-0.000756635
-0.000744839
-0.000648287
-0.000551079
-0.000543358
-0.000636758
-0.000731982
-0.000857145
-0.00113717
-0.00150623
-0.00178476
-0.00194708
-0.00209731
-0.00225456
-0.000238908
-0.000284448
-0.000405889
-0.000500763
-0.000549871
-0.000677324
-0.000809234
-0.00082701
-0.000759513
-0.000683692
-0.000687175
-0.000793355
-0.000925978
-0.00108586
-0.00136606
-0.0017329
-0.0020368
-0.00223146
-0.00238532
-0.00250773
-0.000247992
-0.000293145
-0.000420792
-0.000541984
-0.00061291
-0.000732256
-0.00086306
-0.000909767
-0.000874036
-0.000821745
-0.000837583
-0.000954627
-0.00111696
-0.00130929
-0.00159507
-0.00195882
-0.00228174
-0.00250316
-0.00266381
-0.00276204
-0.000259538
-0.000306053
-0.000438554
-0.000583177
-0.000679503
-0.000795369
-0.0009237
-0.000993122
-0.000990099
-0.000964317
-0.000993695
-0.00112017
-0.00130682
-0.00152733
-0.00182139
-0.00218295
-0.00251963
-0.0027638
-0.00293149
-0.00301406
-0.000273743
-0.00032342
-0.000460351
-0.00062449
-0.000747973
-0.000866476
-0.00099091
-0.00107755
-0.00110601
-0.00110977
-0.00115543
-0.00128922
-0.0014946
-0.00174058
-0.00204402
-0.00240424
-0.0027504
-0.00301374
-0.00318842
-0.00326025
-0.000290878
-0.000345557
-0.000486987
-0.00066711
-0.000817241
-0.00094437
-0.00106598
-0.00116463
-0.00122119
-0.00125507
-0.00132097
-0.00146274
-0.00167987
-0.00194788
-0.0022627
-0.00262176
-0.00297383
-0.00325258
-0.00343471
-0.00349867
-0.000311295
-0.000370967
-0.000518838
-0.000712319
-0.000886775
-0.00102733
-0.00114921
-0.00125622
-0.00133636
-0.00139838
-0.00148654
-0.00163981
-0.00186503
-0.00214817
-0.00247558
-0.00283498
-0.00318987
-0.00348054
-0.0036701
-0.00372862
-0.000335426
-0.000400406
-0.000556054
-0.000761194
-0.000956727
-0.00111367
-0.00124005
-0.00135335
-0.00145214
-0.00154008
-0.00164977
-0.00181613
-0.00205066
-0.00234316
-0.00268023
-0.00304279
-0.00339868
-0.00369797
-0.00389441
-0.00394953
-0.000363708
-0.000434012
-0.000598351
-0.00081458
-0.00102792
-0.00120202
-0.00133708
-0.00145665
-0.00156939
-0.00167996
-0.00181085
-0.00198927
-0.0022328
-0.00253403
-0.00287652
-0.00324254
-0.00359959
-0.00390429
-0.00410719
-0.00416063
-0.000396584
-0.000472011
-0.000645508
-0.000872758
-0.00110143
-0.0012921
-0.00143859
-0.00156559
-0.00168922
-0.00181739
-0.00196823
-0.00215943
-0.00240896
-0.00271776
-0.00306502
-0.00343228
-0.00379071
-0.0040987
-0.00430734
-0.004361
-0.000434465
-0.000514783
-0.000697265
-0.000935677
-0.00117812
-0.00138432
-0.0015434
-0.00167888
-0.00181189
-0.00195334
-0.00212
-0.00232458
-0.00257943
-0.00289101
-0.00324292
-0.00361094
-0.00396958
-0.00428019
-0.00449353
-0.00454902
-0.000477737
-0.000562632
-0.000753699
-0.00100331
-0.00125858
-0.00147898
-0.001651
-0.00179553
-0.00193644
-0.00208841
-0.00226637
-0.00248141
-0.00274267
-0.00305384
-0.00340683
-0.00377648
-0.00413454
-0.00444735
-0.00466451
-0.00472313
-0.000526624
-0.000615891
-0.000815043
-0.00107559
-0.00134296
-0.00157644
-0.00176117
-0.00191497
-0.00206225
-0.00222157
-0.00240783
-0.00262878
-0.00289438
-0.00320566
-0.00355551
-0.00392547
-0.00428352
-0.00459772
-0.00481902
-0.00488154
-0.000581271
-0.000674725
-0.000881648
-0.00115259
-0.00143133
-0.00167699
-0.00187373
-0.00203655
-0.00218946
-0.00235252
-0.0025433
-0.00276704
-0.00303191
-0.00334239
-0.00368776
-0.00405386
-0.0044119
-0.00472681
-0.00495249
-0.0050205
-0.000642019
-0.000739347
-0.000953542
-0.00123444
-0.00152389
-0.00178084
-0.0019889
-0.00216001
-0.00231781
-0.00248213
-0.00267206
-0.00289487
-0.00315416
-0.00345828
-0.00379897
-0.0041583
-0.00451402
-0.00482953
-0.00505895
-0.00513395
-0.000709056
-0.000809898
-0.00103088
-0.00132105
-0.00162077
-0.00188843
-0.00210698
-0.0022858
-0.00244735
-0.00261125
-0.00279615
-0.00301146
-0.00325933
-0.00354835
-0.00387814
-0.00422997
-0.00458126
-0.00489901
-0.00513437
-0.00521946
-0.000782722
-0.000886491
-0.0011139
-0.00141205
-0.00172179
-0.0020004
-0.00222873
-0.00241447
-0.00257878
-0.00273988
-0.00291761
-0.00312024
-0.00334843
-0.00361094
-0.00391431
-0.00424781
-0.00459041
-0.00491258
-0.00516334
-0.00526891
-0.000863622
-0.000970374
-0.00120145
-0.00150701
-0.0018271
-0.00211675
-0.0023554
-0.00254802
-0.00271398
-0.00286872
-0.00303492
-0.00322011
-0.00342353
-0.003653
-0.00391069
-0.00420202
-0.00451217
-0.00481589
-0.00507502
-0.00521778
-0.00095104
-0.00105939
-0.00129446
-0.00160764
-0.00193731
-0.0022372
-0.00248721
-0.00269035
-0.00286012
-0.00300461
-0.00314891
-0.00330499
-0.00347549
-0.00366805
-0.00388309
-0.0041279
-0.00439327
-0.00464592
-0.00485188
-0.0049561
-0.0010433
-0.00115293
-0.00139436
-0.00171453
-0.0020512
-0.00235999
-0.00262308
-0.00284304
-0.00303003
-0.00317887
-0.0032927
-0.00337695
-0.0034314
-0.00348994
-0.00359301
-0.00377276
-0.0040543
-0.0044158
-0.0047914
-0.00506361
-0.0011433
-0.00125685
-0.00150052
-0.0018212
-0.00215983
-0.00247817
-0.00275754
-0.00300093
-0.00321689
-0.00341091
-0.00360372
-0.00378236
-0.00384112
-0.00370808
-0.00346366
-0.00322488
-0.00304515
-0.0029217
-0.00285702
-0.0029094
-0.00125388
-0.00137173
-0.00161414
-0.00193064
-0.00226288
-0.00258021
-0.00287064
-0.00313891
-0.00338112
-0.00353987
-0.00354657
-0.00342277
-0.00326306
-0.0031588
-0.00314382
-0.00319647
-0.0032848
-0.00337907
-0.00347363
-0.00360605
-0.00137483
-0.00147955
-0.00172498
-0.00205232
-0.00240951
-0.00276227
-0.00306165
-0.00324867
-0.00330392
-0.00328882
-0.00328082
-0.00331225
-0.00335972
-0.00339692
-0.00338389
-0.00329978
-0.00315387
-0.00298582
-0.00285882
-0.00284729
-0.00153509
-0.0016336
-0.00180176
-0.00203591
-0.00232102
-0.0026194
-0.00287668
-0.00306359
-0.00319364
-0.00326967
-0.00331761
-0.00337384
-0.00343336
-0.00352132
-0.00367183
-0.00388191
-0.00414221
-0.00442461
-0.00468525
-0.0048635
-0.00168427
-0.00180642
-0.00194201
-0.00212568
-0.00236937
-0.00264377
-0.0028999
-0.00310342
-0.00325358
-0.00335482
-0.00339705
-0.00342073
-0.00343676
-0.00341274
-0.00335408
-0.00326
-0.00313831
-0.00301551
-0.0029506
-0.00302605
-0.00173747
-0.00185831
-0.00203697
-0.00225396
-0.00248051
-0.00269305
-0.00287398
-0.00301072
-0.00311176
-0.0032043
-0.00327714
-0.00334368
-0.00342942
-0.0035033
-0.00355947
-0.00360292
-0.00363349
-0.0036654
-0.00372542
-0.00388001
0.0285643
0.0188888
0.00779081
0.000446067
-0.00235478
-0.00235577
-0.00183566
-0.00189707
-0.00254115
-0.0033012
-0.00384227
-0.00416268
-0.00439919
-0.00463253
-0.00492622
-0.00533069
-0.00574798
-0.00602071
-0.00618936
-0.00640879
-0.00671898
-0.00707433
-0.0074143
-0.00768863
-0.00794073
-0.00826331
-0.00865243
-0.00902841
-0.00935276
-0.00965367
-0.00996804
-0.0102858
-0.0105722
-0.0108333
-0.0111096
-0.0114084
-0.0117015
-0.0119912
-0.0123169
-0.0126819
-0.0130416
-0.0133771
-0.0137203
-0.014079
-0.014415
-0.0147272
-0.0150569
-0.0154077
-0.015759
-0.0161184
-0.0165099
-0.0169157
-0.0172985
-0.017683
-0.0180862
-0.0184737
-0.0188569
-0.0192641
-0.0196803
-0.0201017
-0.0205391
-0.0209835
-0.0214322
-0.0218862
-0.0223416
-0.0228022
-0.023273
-0.0237531
-0.0242452
-0.0247456
-0.0252497
-0.0257598
-0.0262811
-0.0268122
-0.0273529
-0.0279001
-0.0284543
-0.0290145
-0.0295869
-0.0301698
-0.0307633
-0.0313619
-0.0319712
-0.032588
-0.0332183
-0.0338578
-0.0345094
-0.0351679
-0.0358392
-0.0365202
-0.0372151
-0.0379213
-0.0386391
-0.0393694
-0.0401129
-0.0408657
-0.0416355
-0.0424168
-0.0431187
-0.0438335
0.0269877
0.0187215
0.0078825
0.000567189
-0.00227617
-0.00231221
-0.00180588
-0.00187646
-0.00252738
-0.00329167
-0.0038351
-0.0041568
-0.00439402
-0.00462762
-0.0049214
-0.00532628
-0.00574429
-0.00601751
-0.00618628
-0.00640583
-0.00671626
-0.0070719
-0.00741221
-0.00768676
-0.0079389
-0.00826153
-0.00865082
-0.00902699
-0.00935144
-0.00965241
-0.00996684
-0.0102847
-0.0105712
-0.0108323
-0.0111087
-0.0114075
-0.0117007
-0.0119904
-0.0123161
-0.0126811
-0.0130409
-0.0133765
-0.0137197
-0.0140784
-0.0144144
-0.0147267
-0.0150564
-0.0154072
-0.0157586
-0.016118
-0.0165095
-0.0169153
-0.0172981
-0.0176827
-0.0180858
-0.0184734
-0.0188566
-0.0192638
-0.01968
-0.0201014
-0.0205389
-0.0209832
-0.0214319
-0.0218859
-0.0223414
-0.0228019
-0.0232728
-0.0237529
-0.024245
-0.0247455
-0.0252495
-0.0257596
-0.0262809
-0.026812
-0.0273527
-0.0279
-0.0284541
-0.0290143
-0.0295867
-0.0301697
-0.0307631
-0.0313617
-0.031971
-0.0325879
-0.0332182
-0.0338577
-0.0345093
-0.0351678
-0.0358391
-0.0365201
-0.037215
-0.0379212
-0.038639
-0.0393693
-0.0401128
-0.0408657
-0.0416354
-0.0424168
-0.0431187
-0.0438334
0.0257696
0.0186585
0.00811115
0.000805372
-0.00214734
-0.0022637
-0.00178132
-0.00185553
-0.00250921
-0.00327704
-0.0038238
-0.00414847
-0.00438813
-0.0046232
-0.00491742
-0.0053224
-0.00574073
-0.0060143
-0.0061833
-0.0064031
-0.00671375
-0.0070696
-0.0074102
-0.00768496
-0.00793717
-0.00825992
-0.00864942
-0.00902575
-0.00935028
-0.0096513
-0.00996579
-0.0102837
-0.0105703
-0.0108314
-0.0111079
-0.0114068
-0.0116999
-0.0119897
-0.0123154
-0.0126805
-0.0130404
-0.0133759
-0.0137192
-0.0140779
-0.014414
-0.0147262
-0.0150559
-0.0154068
-0.0157581
-0.0161176
-0.0165091
-0.016915
-0.0172978
-0.0176823
-0.0180855
-0.0184731
-0.0188563
-0.0192635
-0.0196798
-0.0201011
-0.0205386
-0.020983
-0.0214317
-0.0218857
-0.0223412
-0.0228018
-0.0232726
-0.0237527
-0.0242449
-0.0247453
-0.0252493
-0.0257594
-0.0262808
-0.0268119
-0.0273526
-0.0278998
-0.028454
-0.0290142
-0.0295866
-0.0301696
-0.030763
-0.0313616
-0.0319709
-0.0325878
-0.0332181
-0.0338576
-0.0345092
-0.0351678
-0.035839
-0.03652
-0.037215
-0.0379211
-0.038639
-0.0393693
-0.0401127
-0.0408656
-0.0416354
-0.0424167
-0.0431187
-0.0438335
0.0246351
0.0185508
0.00837148
0.00109044
-0.00198457
-0.00220513
-0.00175193
-0.00182763
-0.00248292
-0.00325407
-0.00380444
-0.00413353
-0.00437823
-0.00461743
-0.00491346
-0.00531822
-0.005736
-0.00600986
-0.0061798
-0.00640034
-0.00671106
-0.00706674
-0.00740747
-0.0076826
-0.00793512
-0.00825809
-0.00864776
-0.00902426
-0.00934897
-0.00965012
-0.00996469
-0.0102827
-0.0105693
-0.0108305
-0.0111069
-0.0114059
-0.0116992
-0.0119889
-0.0123147
-0.0126799
-0.0130398
-0.0133754
-0.0137186
-0.0140774
-0.0144135
-0.0147258
-0.0150555
-0.0154063
-0.0157577
-0.0161171
-0.0165087
-0.0169147
-0.0172974
-0.017682
-0.0180852
-0.0184728
-0.018856
-0.0192632
-0.0196795
-0.0201009
-0.0205384
-0.0209828
-0.0214315
-0.0218855
-0.022341
-0.0228015
-0.0232724
-0.0237525
-0.0242447
-0.0247451
-0.0252492
-0.0257593
-0.0262806
-0.0268117
-0.0273524
-0.0278997
-0.0284539
-0.0290141
-0.0295865
-0.0301694
-0.0307629
-0.0313615
-0.0319708
-0.0325877
-0.033218
-0.0338575
-0.0345091
-0.0351677
-0.0358389
-0.0365199
-0.0372149
-0.0379211
-0.0386389
-0.0393692
-0.0401126
-0.0408655
-0.0416353
-0.0424167
-0.0431187
-0.0438335
0.0234779
0.0183553
0.00862596
0.00138929
-0.00180944
-0.00214252
-0.00172119
-0.0017956
-0.00244982
-0.00322269
-0.00377602
-0.00411022
-0.00436214
-0.00460856
-0.00490855
-0.00531303
-0.00572916
-0.00600325
-0.00617527
-0.00639752
-0.00670828
-0.00706313
-0.00740355
-0.00767926
-0.00793252
-0.00825575
-0.00864539
-0.00902204
-0.00934718
-0.00964871
-0.0099634
-0.0102814
-0.010568
-0.0108293
-0.0111059
-0.0114049
-0.0116981
-0.0119879
-0.0123138
-0.0126791
-0.0130391
-0.0133747
-0.013718
-0.0140768
-0.014413
-0.0147252
-0.0150549
-0.0154058
-0.0157572
-0.0161167
-0.0165083
-0.0169143
-0.017297
-0.0176816
-0.0180849
-0.0184725
-0.0188556
-0.0192629
-0.0196792
-0.0201006
-0.0205381
-0.0209825
-0.0214312
-0.0218853
-0.0223407
-0.0228013
-0.0232722
-0.0237523
-0.0242445
-0.0247449
-0.025249
-0.0257591
-0.0262805
-0.0268116
-0.0273523
-0.0278996
-0.0284537
-0.0290139
-0.0295863
-0.0301693
-0.0307628
-0.0313614
-0.0319707
-0.0325875
-0.0332179
-0.0338574
-0.034509
-0.0351676
-0.0358388
-0.0365198
-0.0372148
-0.037921
-0.0386388
-0.0393691
-0.0401126
-0.0408655
-0.0416352
-0.0424167
-0.0431187
-0.0438336
0.0223083
0.0180813
0.0088753
0.00170028
-0.00162446
-0.00207711
-0.00169146
-0.0017629
-0.00241371
-0.0031869
-0.00374204
-0.00408079
-0.00434063
-0.00459621
-0.00490192
-0.00530617
-0.00571974
-0.00599411
-0.00616947
-0.00639456
-0.00670549
-0.00705882
-0.00739846
-0.00767501
-0.00792947
-0.00825288
-0.00864198
-0.00901861
-0.00934454
-0.00964686
-0.00996177
-0.0102797
-0.0105665
-0.010828
-0.0111046
-0.0114036
-0.0116968
-0.0119868
-0.0123127
-0.0126781
-0.0130382
-0.013374
-0.0137173
-0.0140761
-0.0144123
-0.0147246
-0.0150543
-0.0154052
-0.0157566
-0.0161161
-0.0165078
-0.0169138
-0.0172966
-0.0176812
-0.0180845
-0.0184721
-0.0188552
-0.0192625
-0.0196789
-0.0201002
-0.0205378
-0.0209822
-0.0214309
-0.021885
-0.0223405
-0.0228011
-0.023272
-0.0237521
-0.0242443
-0.0247447
-0.0252488
-0.0257589
-0.0262803
-0.0268114
-0.0273521
-0.0278994
-0.0284536
-0.0290138
-0.0295862
-0.0301692
-0.0307626
-0.0313613
-0.0319706
-0.0325874
-0.0332178
-0.0338573
-0.0345089
-0.0351675
-0.0358387
-0.0365197
-0.0372147
-0.0379209
-0.0386387
-0.039369
-0.0401125
-0.0408654
-0.0416352
-0.0424167
-0.0431188
-0.0438338
0.0211504
0.0177422
0.00912009
0.00202345
-0.00142951
-0.00200881
-0.00166338
-0.0017307
-0.0023761
-0.00314901
-0.00370563
-0.00404839
-0.00431599
-0.00458131
-0.00489344
-0.00529739
-0.0057079
-0.00598276
-0.0061625
-0.00639137
-0.00670259
-0.00705392
-0.00739239
-0.00767014
-0.00792634
-0.00824976
-0.00863759
-0.00901375
-0.00934071
-0.00964427
-0.00995955
-0.0102774
-0.0105644
-0.0108264
-0.0111033
-0.011402
-0.0116952
-0.0119853
-0.0123114
-0.0126768
-0.013037
-0.013373
-0.0137164
-0.0140753
-0.0144115
-0.0147238
-0.0150536
-0.0154044
-0.0157559
-0.0161155
-0.0165072
-0.0169132
-0.0172961
-0.0176807
-0.018084
-0.0184716
-0.0188548
-0.0192621
-0.0196784
-0.0200998
-0.0205374
-0.0209819
-0.0214306
-0.0218847
-0.0223402
-0.0228008
-0.0232717
-0.0237518
-0.024244
-0.0247445
-0.0252486
-0.0257587
-0.0262801
-0.0268112
-0.0273519
-0.0278992
-0.0284534
-0.0290136
-0.029586
-0.030169
-0.0307625
-0.0313611
-0.0319704
-0.0325873
-0.0332177
-0.0338572
-0.0345088
-0.0351674
-0.0358386
-0.0365196
-0.0372146
-0.0379208
-0.0386386
-0.0393689
-0.0401124
-0.0408653
-0.0416351
-0.0424166
-0.0431189
-0.0438341
0.0200217
0.0173424
0.0093523
0.0023547
-0.00122541
-0.00193726
-0.00163693
-0.00169938
-0.00233725
-0.00310943
-0.00366775
-0.0040145
-0.00428968
-0.00456472
-0.00488344
-0.00528703
-0.00569424
-0.00596979
-0.0061546
-0.00638784
-0.00669944
-0.00704846
-0.00738562
-0.00766495
-0.00792344
-0.00824677
-0.00863261
-0.0090077
-0.00933566
-0.00964073
-0.0099565
-0.0102742
-0.0105617
-0.0108246
-0.0111018
-0.0114004
-0.0116935
-0.0119837
-0.0123098
-0.012675
-0.0130354
-0.0133718
-0.0137154
-0.0140742
-0.0144106
-0.0147231
-0.0150527
-0.0154034
-0.015755
-0.0161147
-0.0165064
-0.0169125
-0.0172955
-0.0176801
-0.0180835
-0.0184711
-0.0188543
-0.0192616
-0.019678
-0.0200994
-0.020537
-0.0209815
-0.0214302
-0.0218843
-0.0223398
-0.0228004
-0.0232714
-0.0237515
-0.0242437
-0.0247442
-0.0252483
-0.0257584
-0.0262798
-0.026811
-0.0273517
-0.027899
-0.0284532
-0.0290134
-0.0295858
-0.0301688
-0.0307623
-0.031361
-0.0319703
-0.0325871
-0.0332175
-0.033857
-0.0345087
-0.0351672
-0.0358385
-0.0365195
-0.0372145
-0.0379207
-0.0386385
-0.0393688
-0.0401123
-0.0408652
-0.041635
-0.0424166
-0.043119
-0.0438345
0.0189363
0.0168838
0.0095604
0.0026896
-0.00101124
-0.00186035
-0.00161117
-0.00166908
-0.00229728
-0.0030681
-0.00362849
-0.0039795
-0.00426219
-0.00454692
-0.00487234
-0.00527557
-0.00567935
-0.00595568
-0.00614596
-0.00638396
-0.006696
-0.00704253
-0.00737832
-0.00765956
-0.00792079
-0.0082441
-0.00862749
-0.00900099
-0.00932971
-0.00963628
-0.00995254
-0.0102702
-0.0105583
-0.0108224
-0.0111002
-0.0113986
-0.0116917
-0.0119821
-0.012308
-0.0126728
-0.0130333
-0.0133702
-0.013714
-0.0140728
-0.0144094
-0.0147222
-0.0150519
-0.0154024
-0.0157539
-0.0161137
-0.0165054
-0.0169115
-0.0172947
-0.0176795
-0.0180828
-0.0184704
-0.0188537
-0.019261
-0.0196774
-0.0200988
-0.0205365
-0.020981
-0.0214298
-0.0218839
-0.0223394
-0.0228
-0.023271
-0.0237511
-0.0242433
-0.0247439
-0.025248
-0.0257581
-0.0262795
-0.0268107
-0.0273514
-0.0278988
-0.028453
-0.0290132
-0.0295856
-0.0301686
-0.0307621
-0.0313608
-0.0319701
-0.032587
-0.0332174
-0.0338569
-0.0345085
-0.0351671
-0.0358383
-0.0365193
-0.0372143
-0.0379205
-0.0386384
-0.0393687
-0.0401121
-0.0408651
-0.0416349
-0.0424165
-0.0431192
-0.0438349
0.0179046
0.0163688
0.00973416
0.0030259
-0.000784319
-0.00177538