/*--------------------------------*- C++ -*----------------------------------*\
| =========                 |                                                 |
| \\      /  F ield         | OpenFOAM: The Open Source CFD Toolbox           |
|  \\    /   O peration     | Version:  3.0.1                                 |
|   \\  /    A nd           | Web:      www.OpenFOAM.org                      |
|    \\/     M anipulation  |                                                 |
\*---------------------------------------------------------------------------*/
FoamFile
{
    version     2.0;
    format      ascii;
    class       surfaceScalarField;
    location    "2.7";
    object      phi;
}
// * * * * * * * * * * * * * * * * * * * * * * * * * * * * * * * * * * * * * //

dimensions      [0 3 -1 0 0 0 0];

internalField   nonuniform List<scalar> 
19000
(
1.16499e-06
1.70321e-07
1.15439e-06
-2.69765e-07
1.19087e-06
-3.8886e-07
1.20991e-06
2.04228e-07
1.14891e-06
7.93848e-07
1.09543e-06
1.67216e-08
1.15375e-06
-1.27251e-07
1.14799e-06
-9.10796e-07
1.17664e-06
-6.51894e-07
1.19758e-06
-1.56895e-07
1.17737e-06
-8.0966e-08
1.17973e-06
3.12785e-07
1.16055e-06
4.12961e-07
1.14078e-06
3.42579e-07
1.14064e-06
4.3209e-07
1.1119e-06
-1.17931e-07
1.13012e-06
2.45352e-07
1.10127e-06
-2.39295e-07
1.11648e-06
1.79841e-08
-3.57704e-07
1.04327e-06
1.2184e-06
1.76185e-07
1.20899e-06
-2.60353e-07
1.2468e-06
-4.26679e-07
1.26851e-06
1.82525e-07
1.20279e-06
8.5957e-07
1.15515e-06
6.43589e-08
1.20459e-06
-1.76691e-07
1.20006e-06
-9.06269e-07
1.23047e-06
-6.82298e-07
1.25502e-06
-1.81448e-07
1.23162e-06
-5.75636e-08
1.2394e-06
3.05006e-07
1.21311e-06
4.39242e-07
1.20245e-06
3.53247e-07
1.18998e-06
4.44551e-07
1.17731e-06
-1.05254e-07
1.17627e-06
2.46392e-07
1.17446e-06
-2.37489e-07
1.16175e-06
3.06962e-08
-3.31986e-07
1.13603e-06
1.27379e-06
1.85178e-07
1.26758e-06
-2.54146e-07
1.30252e-06
-4.61611e-07
1.3278e-06
1.57243e-07
1.26404e-06
9.23324e-07
1.22312e-06
1.05283e-07
1.2599e-06
-2.13474e-07
1.26148e-06
-9.07846e-07
1.28528e-06
-7.06096e-07
1.3137e-06
-2.0987e-07
1.28934e-06
-3.32015e-08
1.29579e-06
2.98554e-07
1.27022e-06
4.64808e-07
1.26057e-06
3.62903e-07
1.2517e-06
4.53423e-07
1.24214e-06
-9.56987e-08
1.24624e-06
2.42296e-07
1.24366e-06
-2.34909e-07
1.24192e-06
3.24322e-08
-3.04738e-07
1.21467e-06
1.33248e-06
1.96796e-07
1.33034e-06
-2.52001e-07
1.35863e-06
-4.89902e-07
1.3857e-06
1.30176e-07
1.332e-06
9.7702e-07
1.29779e-06
1.39493e-07
1.32006e-06
-2.35746e-07
1.32807e-06
-9.15856e-07
1.34324e-06
-7.21265e-07
1.37151e-06
-2.38141e-07
1.35119e-06
-1.28818e-08
1.34923e-06
3.0052e-07
1.33091e-06
4.83122e-07
1.32063e-06
3.73187e-07
1.31762e-06
4.56431e-07
1.30971e-06
-8.77852e-08
1.3164e-06
2.35601e-07
1.31122e-06
-2.29722e-07
1.31326e-06
3.03925e-08
-2.7366e-07
1.28218e-06
1.3958e-06
2.09346e-07
1.39674e-06
-2.52934e-07
1.41621e-06
-5.09379e-07
1.44204e-06
1.04349e-07
1.40488e-06
1.01418e-06
1.37681e-06
1.67561e-07
1.38593e-06
-2.44866e-07
1.39631e-06
-9.2623e-07
1.40492e-06
-7.29883e-07
1.42937e-06
-2.62585e-07
1.41619e-06
2.93703e-10
1.40689e-06
3.09823e-07
1.39454e-06
4.95466e-07
1.38683e-06
3.80905e-07
1.38789e-06
4.55365e-07
1.38113e-06
-8.10248e-08
1.38926e-06
2.27477e-07
1.3811e-06
-2.21566e-07
1.38497e-06
2.65196e-08
-2.40534e-07
1.35185e-06
1.46448e-06
2.20539e-07
1.4664e-06
-2.54852e-07
1.47672e-06
-5.19695e-07
1.49885e-06
8.22196e-08
1.48049e-06
1.03254e-06
1.45846e-06
1.89589e-07
1.45765e-06
-2.44056e-07
1.46553e-06
-9.34114e-07
1.46974e-06
-7.34091e-07
1.4894e-06
-2.82243e-07
1.4826e-06
7.09194e-09
1.47137e-06
3.21054e-07
1.46298e-06
5.03862e-07
1.45906e-06
3.8482e-07
1.46325e-06
4.51175e-07
1.45671e-06
-7.44796e-08
1.46565e-06
2.18534e-07
1.4543e-06
-2.10218e-07
1.4591e-06
2.17209e-08
-2.06151e-07
1.42472e-06
1.53824e-06
2.28511e-07
1.53926e-06
-2.55868e-07
1.54141e-06
-5.21847e-07
1.55893e-06
6.46991e-08
1.55731e-06
1.03416e-06
1.5417e-06
2.05202e-07
1.53453e-06
-2.36891e-07
1.53679e-06
-9.36367e-07
1.53707e-06
-7.34373e-07
1.55262e-06
-2.9779e-07
1.55023e-06
9.48049e-09
1.54136e-06
3.29916e-07
1.5368e-06
5.08428e-07
1.53634e-06
3.85277e-07
1.54266e-06
4.44855e-07
1.53561e-06
-6.74332e-08
1.54491e-06
2.09235e-07
1.53033e-06
-1.9563e-07
1.53563e-06
1.64191e-08
-1.71137e-07
1.50061e-06
1.61607e-06
2.32571e-07
1.61531e-06
-2.55108e-07
1.611e-06
-5.17537e-07
1.62443e-06
5.12688e-08
1.63511e-06
1.02348e-06
1.62598e-06
2.14334e-07
1.6155e-06
-2.26413e-07
1.6112e-06
-9.32074e-07
1.60716e-06
-7.30327e-07
1.61925e-06
-3.09887e-07
1.61993e-06
8.80004e-09
1.61536e-06
3.34492e-07
1.61503e-06
5.08759e-07
1.61748e-06
3.82822e-07
1.62504e-06
4.37293e-07
1.61692e-06
-5.93054e-08
1.62643e-06
1.99717e-07
1.60884e-06
-1.78036e-07
1.61442e-06
1.0838e-08
-1.36261e-07
1.57955e-06
1.69695e-06
2.33195e-07
1.69454e-06
-2.52702e-07
1.68565e-06
-5.08647e-07
1.69615e-06
4.07749e-08
1.71455e-06
1.00508e-06
1.71117e-06
2.17709e-07
1.69957e-06
-2.1481e-07
1.68945e-06
-9.21954e-07
1.68092e-06
-7.218e-07
1.68966e-06
-3.18627e-07
1.6926e-06
5.85805e-09
1.69265e-06
3.34443e-07
1.69655e-06
5.04866e-07
1.70133e-06
3.78033e-07
1.70967e-06
4.28956e-07
1.70007e-06
-4.97036e-08
1.70984e-06
1.89945e-07
1.68974e-06
-1.57931e-07
1.6954e-06
5.17354e-09
-1.02407e-07
1.66155e-06
1.78048e-06
2.31441e-07
1.77705e-06
-2.4928e-07
1.76529e-06
-4.96886e-07
1.77387e-06
3.21985e-08
1.79646e-06
9.82495e-07
1.79755e-06
2.16615e-07
1.78618e-06
-2.0344e-07
1.77172e-06
-9.0749e-07
1.75922e-06
-7.09301e-07
1.76445e-06
-3.23858e-07
1.76888e-06
1.43206e-09
1.77297e-06
3.3035e-07
1.78063e-06
4.9721e-07
1.78709e-06
3.71574e-07
1.79608e-06
4.19957e-07
1.78491e-06
-3.85327e-08
1.79503e-06
1.79831e-07
1.7731e-06
-1.36003e-07
1.77859e-06
-3.19647e-10
-7.04928e-08
1.74668e-06
1.86686e-06
2.28333e-07
1.86306e-06
-2.45483e-07
1.84973e-06
-4.83557e-07
1.85696e-06
2.49693e-08
1.88147e-06
9.57985e-07
1.88567e-06
2.12411e-07
1.87526e-06
-1.93029e-07
1.85798e-06
-8.90208e-07
1.84248e-06
-6.93795e-07
1.84422e-06
-3.25606e-07
1.84931e-06
-3.65131e-09
1.85631e-06
3.23342e-07
1.867e-06
4.86525e-07
1.87448e-06
3.6409e-07
1.88423e-06
4.10206e-07
1.87169e-06
-2.599e-08
1.88221e-06
1.69317e-07
1.85924e-06
-1.13035e-07
1.86422e-06
-5.30453e-09
-4.13682e-08
1.8351e-06
1.95662e-06
2.24556e-07
1.95287e-06
-2.41737e-07
1.93878e-06
-4.69466e-07
1.94487e-06
1.88766e-08
1.97005e-06
9.32802e-07
1.97626e-06
2.06204e-07
1.96712e-06
-1.83883e-07
1.9482e-06
-8.7129e-07
1.93074e-06
-6.7634e-07
1.92933e-06
-3.24198e-07
1.93441e-06
-8.72728e-09
1.94301e-06
3.14739e-07
1.95591e-06
4.73626e-07
1.96388e-06
3.56123e-07
1.97453e-06
3.99553e-07
1.96101e-06
-1.2468e-08
1.97187e-06
1.58459e-07
1.94866e-06
-8.98313e-08
1.95268e-06
-9.3245e-09
-1.57404e-08
1.92705e-06
2.05029e-06
2.20451e-07
2.04679e-06
-2.38234e-07
2.03232e-06
-4.54992e-07
2.03735e-06
1.38436e-08
2.06266e-06
9.07496e-07
2.07008e-06
1.98777e-07
2.06225e-06
-1.76048e-07
2.04242e-06
-8.51465e-07
2.0239e-06
-6.57819e-07
2.01984e-06
-3.20138e-07
2.02457e-06
-1.34533e-08
2.03361e-06
3.05695e-07
2.04799e-06
4.59244e-07
2.05605e-06
3.48067e-07
2.0677e-06
3.87908e-07
2.05366e-06
1.57164e-09
2.06464e-06
1.47473e-07
2.04195e-06
-6.71383e-08
2.04453e-06
-1.19038e-08
5.9449e-09
2.02284e-06
2.1483e-06
2.16148e-07
2.14507e-06
-2.35001e-07
2.13033e-06
-4.40256e-07
2.13441e-06
9.76518e-09
2.15971e-06
8.82197e-07
2.16783e-06
1.90663e-07
2.1612e-06
-1.69426e-07
2.14082e-06
-8.31079e-07
2.12186e-06
-6.38863e-07
2.11563e-06
-3.13909e-07
2.11997e-06
-1.77929e-08
2.12867e-06
2.97e-07
2.14398e-06
4.43928e-07
2.15191e-06
3.40146e-07
2.1645e-06
3.75311e-07
2.15042e-06
1.56557e-08
2.16116e-06
1.36731e-07
2.13962e-06
-4.5599e-08
2.14042e-06
-1.2697e-08
2.36025e-08
2.12276e-06
2.25095e-06
2.11686e-07
2.24793e-06
-2.31978e-07
2.23295e-06
-4.25276e-07
2.23625e-06
6.46533e-09
2.26162e-06
8.56829e-07
2.27005e-06
1.82229e-07
2.26448e-06
-1.63852e-07
2.2436e-06
-8.10204e-07
2.22463e-06
-6.19892e-07
2.21659e-06
-3.05871e-07
2.22069e-06
-2.18941e-08
2.22864e-06
2.8905e-07
2.24452e-06
4.28048e-07
2.25226e-06
3.32406e-07
2.26562e-06
3.61958e-07
2.25193e-06
2.93389e-08
2.26198e-06
1.26688e-07
2.24209e-06
-2.57076e-08
2.24099e-06
-1.1604e-08
3.75277e-08
2.22707e-06
2.35849e-06
2.07072e-07
2.35558e-06
-2.29066e-07
2.34037e-06
-4.10068e-07
2.3431e-06
3.73733e-09
2.36868e-06
8.31244e-07
2.37717e-06
1.73744e-07
2.37248e-06
-1.59163e-07
2.35102e-06
-7.8875e-07
2.33232e-06
-6.01189e-07
2.32272e-06
-2.96266e-07
2.32678e-06
-2.59614e-08
2.33391e-06
2.81927e-07
2.3501e-06
4.11855e-07
2.35776e-06
3.24746e-07
2.37156e-06
3.48154e-07
2.35866e-06
4.22429e-08
2.36758e-06
1.17771e-07
2.34963e-06
-7.76694e-09
2.3468e-06
-8.76547e-09
4.82867e-08
2.33604e-06
2.47116e-06
2.02309e-07
2.46826e-06
-2.26168e-07
2.45286e-06
-3.94669e-07
2.4552e-06
1.40379e-09
2.48114e-06
8.05295e-07
2.48948e-06
1.65407e-07
2.48556e-06
-1.55242e-07
2.46336e-06
-7.66548e-07
2.44513e-06
-5.82958e-07
2.43413e-06
-2.85265e-07
2.43834e-06
-3.01753e-08
2.44477e-06
2.75496e-07
2.46107e-06
3.9556e-07
2.46885e-06
3.16962e-07
2.48272e-06
3.34287e-07
2.47088e-06
5.40779e-08
2.4784e-06
1.1025e-07
2.46245e-06
8.18739e-09
2.45815e-06
-4.47184e-09
5.65078e-08
2.44993e-06
2.58921e-06
1.97394e-07
2.58623e-06
-2.23194e-07
2.57072e-06
-3.79151e-07
2.57276e-06
-6.43517e-10
2.5992e-06
7.78859e-07
2.60723e-06
1.57373e-07
2.60403e-06
-1.52036e-07
2.58089e-06
-7.43415e-07
2.56329e-06
-5.6535e-07
2.55104e-06
-2.73016e-07
2.5555e-06
-3.46414e-08
2.56151e-06
2.69486e-07
2.57768e-06
3.79395e-07
2.58585e-06
3.08787e-07
2.59936e-06
3.20775e-07
2.58878e-06
6.46618e-08
2.59486e-06
1.04174e-07
2.58064e-06
2.24074e-08
2.57528e-06
8.89069e-10
6.27393e-08
2.56904e-06
2.7129e-06
1.92324e-07
2.70977e-06
-2.20064e-07
2.69423e-06
-3.63607e-07
2.69602e-06
-2.43455e-09
2.72304e-06
7.51836e-07
2.73064e-06
1.49769e-07
2.72815e-06
-1.49546e-07
2.70394e-06
-7.19202e-07
2.68705e-06
-5.48462e-07
2.67372e-06
-2.5968e-07
2.67844e-06
-3.93616e-08
2.68437e-06
2.63559e-07
2.70013e-06
3.63631e-07
2.70896e-06
2.99961e-07
2.72174e-06
3.07994e-07
2.71245e-06
7.39508e-08
2.71723e-06
9.93886e-08
2.70439e-06
3.52514e-08
2.69833e-06
6.95292e-09
6.73972e-08
2.69367e-06
2.8425e-06
1.87087e-07
2.83914e-06
-2.16703e-07
2.82369e-06
-3.48152e-07
2.82519e-06
-3.93243e-09
2.85288e-06
7.24138e-07
2.85994e-06
1.42713e-07
2.8582e-06
-1.47805e-07
2.83283e-06
-6.93829e-07
2.81669e-06
-5.32325e-07
2.80246e-06
-2.45451e-07
2.80733e-06
-4.42271e-08
2.81353e-06
2.57353e-07
2.8286e-06
3.48564e-07
2.83827e-06
2.90286e-07
2.8501e-06
2.96167e-07
2.84197e-06
8.20783e-08
2.84578e-06
9.55832e-08
2.83399e-06
4.70394e-08
2.82746e-06
1.34842e-08
7.07374e-08
2.82412e-06
2.97831e-06
1.81673e-07
2.97463e-06
-2.13028e-07
2.95941e-06
-3.32926e-07
2.96053e-06
-5.0525e-09
2.98898e-06
6.95683e-07
2.99538e-06
1.36314e-07
2.99442e-06
-1.46841e-07
2.96788e-06
-6.67295e-07
2.95246e-06
-5.16901e-07
2.93758e-06
-2.30567e-07
2.94237e-06
-4.90197e-08
2.9492e-06
2.50522e-07
2.96329e-06
3.3447e-07
2.9739e-06
2.7968e-07
2.98477e-06
2.85302e-07
2.97747e-06
8.9372e-08
2.98067e-06
9.23838e-08
2.9698e-06
5.79145e-08
2.96281e-06
2.04674e-08
7.28651e-08
2.96069e-06
3.12061e-06
1.76067e-07
3.11653e-06
-2.08943e-07
3.10169e-06
-3.18089e-07
3.10232e-06
-5.68177e-09
3.13161e-06
6.66395e-07
3.13726e-06
1.30665e-07
3.13707e-06
-1.46655e-07
3.10945e-06
-6.39676e-07
3.09464e-06
-5.02084e-07
3.07938e-06
-2.15314e-07
3.08381e-06
-5.34458e-08
3.09157e-06
2.42758e-07
3.10449e-06
3.21555e-07
3.11597e-06
2.682e-07
3.12605e-06
2.75217e-07
3.11919e-06
9.62362e-08
3.12207e-06
8.95011e-08
3.11219e-06
6.77992e-08
3.10463e-06
2.80242e-08
7.38727e-08
3.10362e-06
3.26972e-06
1.70253e-07
3.26512e-06
-2.04343e-07
3.25085e-06
-3.0382e-07
3.25087e-06
-5.69865e-09
3.28105e-06
6.36211e-07
3.2859e-06
1.25823e-07
3.28644e-06
-1.47197e-07
3.2579e-06
-6.11137e-07
3.2435e-06
-4.87689e-07
3.22822e-06
-2.0003e-07
3.23194e-06
-5.71701e-08
3.24086e-06
2.3384e-07
3.25252e-06
3.09902e-07
3.26465e-06
2.5607e-07
3.27427e-06
2.65598e-07
3.26746e-06
1.03042e-07
3.27014e-06
8.68257e-08
3.26149e-06
7.6443e-08
3.25324e-06
3.62763e-08
7.39554e-08
3.25316e-06
3.42597e-06
1.64218e-07
3.42074e-06
-1.99116e-07
3.40722e-06
-2.903e-07
3.40652e-06
-4.99755e-09
3.43762e-06
6.05111e-07
3.44164e-06
1.21799e-07
3.4428e-06
-1.48353e-07
3.41358e-06
-5.8192e-07
3.39937e-06
-4.73476e-07
3.38441e-06
-1.85075e-07
3.38711e-06
-5.98715e-08
3.3973e-06
2.2365e-07
3.40774e-06
2.99461e-07
3.42018e-06
2.43639e-07
3.4297e-06
2.56077e-07
3.4227e-06
1.10038e-07
3.42506e-06
8.44685e-08
3.41799e-06
8.35094e-08
3.40906e-06
4.52116e-08
7.34856e-08
3.40953e-06
3.58968e-06
1.57949e-07
3.58372e-06
-1.93158e-07
3.57112e-06
-2.77694e-07
3.56963e-06
-3.50886e-09
3.60161e-06
5.73131e-07
3.60487e-06
1.18539e-07
3.60647e-06
-1.49954e-07
3.57688e-06
-5.52333e-07
3.56257e-06
-4.59166e-07
3.5483e-06
-1.708e-07
3.54972e-06
-6.12915e-08
3.56115e-06
2.12213e-07
3.57056e-06
2.90059e-07
3.58288e-06
2.31319e-07
3.59261e-06
2.46345e-07
3.58538e-06
1.17263e-07
3.58718e-06
8.26752e-08
3.58192e-06
8.8761e-08
3.57252e-06
5.46182e-08
7.29757e-08
3.57303e-06
3.76122e-06
1.51438e-07
3.75445e-06
-1.8639e-07
3.74288e-06
-2.66129e-07
3.74059e-06
-1.21571e-09
3.77333e-06
5.40387e-07
3.77596e-06
1.15915e-07
3.77777e-06
-1.51768e-07
3.74819e-06
-5.22751e-07
3.73348e-06
-4.44453e-07
3.72019e-06
-1.57516e-07
3.72018e-06
-6.12789e-08
3.7327e-06
1.99699e-07
3.74134e-06
2.81418e-07
3.75312e-06
2.19539e-07
3.76328e-06
2.36183e-07
3.75596e-06
1.24578e-07
3.75692e-06
8.17233e-08
3.75351e-06
9.21643e-08
3.74405e-06
6.40778e-08
7.29905e-08
3.74404e-06
3.94094e-06
1.44681e-07
3.93332e-06
-1.78767e-07
3.92287e-06
-2.55675e-07
3.91981e-06
1.83787e-09
3.95313e-06
5.07075e-07
3.95532e-06
1.13725e-07
3.95706e-06
-1.53514e-07
3.9279e-06
-4.93585e-07
3.9125e-06
-4.29055e-07
3.90042e-06
-1.45438e-07
3.89897e-06
-5.98285e-08
3.91226e-06
1.86405e-07
3.92045e-06
2.73232e-07
3.93133e-06
2.08663e-07
3.94202e-06
2.25487e-07
3.93487e-06
1.31734e-07
3.93472e-06
8.18707e-08
3.93304e-06
9.38443e-08
3.92403e-06
7.30887e-08
7.40135e-08
3.923e-06
4.12925e-06
1.37684e-07
4.12076e-06
-1.70281e-07
4.11143e-06
-2.4634e-07
4.10773e-06
5.53809e-09
4.14133e-06
4.7347e-07
4.14336e-06
1.11699e-07
4.14472e-06
-1.54874e-07
4.11639e-06
-4.65261e-07
4.10008e-06
-4.12744e-07
4.08929e-06
-1.34647e-07
4.08654e-06
-5.7075e-08
4.10024e-06
1.72705e-07
4.10826e-06
2.6521e-07
4.11798e-06
1.98946e-07
4.12916e-06
2.14298e-07
4.1225e-06
1.38404e-07
4.12106e-06
8.33055e-08
4.12083e-06
9.40725e-08
4.1128e-06
8.11232e-08
7.63397e-08
4.11047e-06
4.32653e-06
1.30459e-07
4.3172e-06
-1.60959e-07
4.30893e-06
-2.3807e-07
4.30477e-06
9.701e-09
4.33832e-06
4.39924e-07
4.3405e-06
1.09513e-07
4.34114e-06
-1.5551e-07
4.31406e-06
-4.38177e-07
4.29672e-06
-3.95404e-07
4.28716e-06
-1.25088e-07
4.28332e-06
-5.32377e-08
4.29706e-06
1.5897e-07
4.30513e-06
2.57135e-07
4.31357e-06
1.90505e-07
4.32507e-06
2.028e-07
4.31924e-06
1.44239e-07
4.31644e-06
8.61043e-08
4.31727e-06
9.32363e-08
4.31068e-06
8.77146e-08
7.9946e-08
4.30708e-06
4.5332e-06
1.23031e-07
4.52311e-06
-1.50868e-07
4.51578e-06
-2.30743e-07
4.51142e-06
1.40701e-08
4.54449e-06
4.06852e-07
4.54719e-06
1.06807e-07
4.54677e-06
-1.55086e-07
4.52122e-06
-4.12632e-07
4.50293e-06
-3.77115e-07
4.49439e-06
-1.16548e-07
4.48974e-06
-4.85886e-08
4.50318e-06
1.45534e-07
4.51144e-06
2.48875e-07
4.5186e-06
1.83343e-07
4.53016e-06
1.91248e-07
4.52547e-06
1.48926e-07
4.52142e-06
9.01561e-08
4.52275e-06
9.19e-08
4.518e-06
9.2464e-08
8.44863e-08
4.51346e-06
4.74971e-06
1.15439e-07
4.73896e-06
-1.40122e-07
4.73238e-06
-2.24165e-07
4.72814e-06
1.83168e-08
4.76025e-06
3.74735e-07
4.76387e-06
1.03189e-07
4.76211e-06
-1.53327e-07
4.73816e-06
-3.8868e-07
4.71925e-06
-3.58206e-07
4.71147e-06
-1.08766e-07
4.70623e-06
-4.33507e-08
4.7191e-06
1.32668e-07
4.72762e-06
2.40352e-07
4.73352e-06
1.77447e-07
4.74491e-06
1.79851e-07
4.74157e-06
1.52272e-07
4.73653e-06
9.51942e-08
4.73781e-06
9.06171e-08
4.73503e-06
9.52432e-08
8.93012e-08
4.73022e-06
4.9765e-06
1.07735e-07
4.96526e-06
-1.2888e-07
4.95915e-06
-2.18057e-07
4.95542e-06
2.20454e-08
4.98607e-06
3.44085e-07
4.991e-06
9.82674e-08
4.98776e-06
-1.50089e-07
4.96517e-06
-3.66095e-07
4.94613e-06
-3.3916e-07
4.93888e-06
-1.01514e-07
4.93323e-06
-3.77072e-08
4.94528e-06
1.20615e-07
4.95409e-06
2.31544e-07
4.95879e-06
1.72745e-07
4.96979e-06
1.68855e-07
4.96794e-06
1.54123e-07
4.96226e-06
1.00869e-07
4.96308e-06
8.98013e-08
4.96204e-06
9.62841e-08
9.35922e-08
4.95775e-06
5.21406e-06
9.9989e-08
5.20254e-06
-1.17357e-07
5.19653e-06
-2.12047e-07
5.19376e-06
2.48124e-08
5.22248e-06
3.15367e-07
5.22898e-06
9.17686e-08
5.2244e-06
-1.45514e-07
5.20274e-06
-3.44436e-07
5.18397e-06
-3.20388e-07
5.17716e-06
-9.47041e-08
5.1712e-06
-3.17488e-08
5.18224e-06
1.09584e-07
5.19131e-06
2.22473e-07
5.19493e-06
1.69121e-07
5.20526e-06
1.58529e-07
5.20503e-06
1.54351e-07
5.19912e-06
1.06783e-07
5.19921e-06
8.97109e-08
5.19946e-06
9.60343e-08
9.67385e-08
5.19631e-06
5.46289e-06
9.22854e-08
5.45135e-06
-1.05817e-07
5.44496e-06
-2.05656e-07
5.44364e-06
2.61373e-08
5.47012e-06
2.88887e-07
5.47816e-06
8.37274e-08
5.47278e-06
-1.40133e-07
5.45153e-06
-3.23193e-07
5.43321e-06
-3.02063e-07
5.42686e-06
-8.83556e-08
5.42061e-06
-2.54943e-08
5.43044e-06
9.97518e-08
5.43971e-06
2.13204e-07
5.44243e-06
1.66397e-07
5.45187e-06
1.49084e-07
5.45329e-06
1.5294e-07
5.44755e-06
1.12516e-07
5.44687e-06
9.03922e-08
5.4478e-06
9.51019e-08
9.84512e-08
5.44609e-06
5.72352e-06
8.47198e-08
5.71226e-06
-9.45571e-08
5.70489e-06
-1.98285e-07
5.70555e-06
2.5476e-08
5.72977e-06
2.64675e-07
5.73884e-06
7.46507e-08
5.73337e-06
-1.34663e-07
5.7123e-06
-3.02118e-07
5.69434e-06
-2.84102e-07
5.68842e-06
-8.24434e-08
5.68188e-06
-1.89535e-08
5.69032e-06
9.13162e-08
5.69975e-06
2.03771e-07
5.70182e-06
1.64331e-07
5.71025e-06
1.40648e-07
5.71324e-06
1.49953e-07
5.70803e-06
1.17727e-07
5.70665e-06
9.17713e-08
5.70784e-06
9.39101e-08
9.88903e-08
5.7074e-06
5.99652e-06
7.7392e-08
5.98586e-06
-8.38926e-08
5.97682e-06
-1.89245e-07
5.97999e-06
2.23017e-08
6.00231e-06
2.42356e-07
6.01148e-06
6.5484e-08
6.00652e-06
-1.29705e-07
5.98568e-06
-2.81282e-07
5.96777e-06
-2.6619e-07
5.96213e-06
-7.68026e-08
5.95527e-06
-1.20991e-08
5.96227e-06
8.43226e-08
5.97193e-06
1.94105e-07
5.9737e-06
1.62565e-07
5.98104e-06
1.33307e-07
5.98546e-06
1.45531e-07
5.98107e-06
1.22115e-07
5.97909e-06
9.37608e-08
5.98032e-06
9.26769e-08
9.84364e-08
5.98077e-06
6.28249e-06
7.03949e-08
6.27273e-06
-7.4141e-08
6.26173e-06
-1.78242e-07
6.26724e-06
1.67897e-08
6.28847e-06
2.21126e-07
6.29681e-06
5.71489e-08
6.29242e-06
-1.25317e-07
6.27194e-06
-2.60807e-07
6.25346e-06
-2.47704e-07
6.2477e-06
-7.10417e-08
6.24088e-06
-5.27761e-09
6.24676e-06
7.84393e-08
6.25689e-06
1.83976e-07
6.25874e-06
1.60716e-07
6.26493e-06
1.27109e-07
6.27051e-06
1.39951e-07
6.26725e-06
1.25381e-07
6.26472e-06
9.62912e-08
6.26588e-06
9.15114e-08
9.738e-08
6.26694e-06
6.58207e-06
6.37989e-08
6.57351e-06
-6.55858e-08
6.56103e-06
-1.65758e-07
6.56764e-06
1.01723e-08
6.58879e-06
1.99982e-07
6.59578e-06
5.01607e-08
6.5913e-06
-1.20838e-07
6.57092e-06
-2.40428e-07
6.55158e-06
-2.28363e-07
6.54575e-06
-6.52141e-08
6.53949e-06
9.84884e-10
6.54464e-06
7.32847e-08
6.55536e-06
1.73255e-07
6.55761e-06
1.58472e-07
6.56261e-06
1.22109e-07
6.56899e-06
1.33566e-07
6.56711e-06
1.27262e-07
6.56417e-06
9.92324e-08
6.56513e-06
9.05487e-08
9.58341e-08
6.56668e-06
6.89594e-06
5.76451e-08
6.88888e-06
-5.85251e-08
6.87541e-06
-1.52282e-07
6.88198e-06
3.59707e-09
6.90355e-06
1.78419e-07
6.90942e-06
4.42909e-08
6.90399e-06
-1.15409e-07
6.88383e-06
-2.2027e-07
6.86429e-06
-2.08826e-07
6.85828e-06
-5.92018e-08
6.8526e-06
6.66383e-09
6.85701e-06
6.88721e-08
6.86812e-06
1.62151e-07
6.87094e-06
1.55653e-07
6.87477e-06
1.18278e-07
6.88154e-06
1.26793e-07
6.88123e-06
1.27572e-07
6.87812e-06
1.02338e-07
6.87868e-06
8.99885e-08
9.38513e-08
6.88067e-06
7.22483e-06
5.19498e-08
7.21961e-06
-5.33041e-08
7.20546e-06
-1.38132e-07
7.21117e-06
-2.11053e-09
7.2331e-06
1.56481e-07
7.2385e-06
3.88998e-08
7.2319e-06
-1.08808e-07
7.21245e-06
-2.0082e-07
7.19289e-06
-1.89275e-07
7.18633e-06
-5.26358e-08
7.18105e-06
1.19466e-08
7.18473e-06
6.5184e-08
7.19589e-06
1.50992e-07
7.19937e-06
1.52177e-07
7.20217e-06
1.1548e-07
7.20888e-06
1.20078e-07
7.21018e-06
1.26277e-07
7.20727e-06
1.05249e-07
7.20726e-06
8.99907e-08
9.15773e-08
7.20954e-06
7.56948e-06
4.66969e-08
7.56612e-06
-4.99449e-08
7.55188e-06
-1.23889e-07
7.55622e-06
-6.45432e-09
7.57798e-06
1.34725e-07
7.58373e-06
3.3148e-08
7.57632e-06
-1.01396e-07
7.55752e-06
-1.82019e-07
7.53786e-06
-1.69625e-07
7.53047e-06
-4.52442e-08
7.52547e-06
1.69465e-08
7.52852e-06
6.21373e-08
7.53943e-06
1.40082e-07
7.54358e-06
1.48031e-07
7.54556e-06
1.13496e-07
7.55183e-06
1.13805e-07
7.55456e-06
1.2355e-07
7.55228e-06
1.07534e-07
7.55171e-06
9.05603e-08
8.93045e-08
7.55398e-06
7.93067e-06
4.18417e-08
7.92856e-06
-4.7838e-08
7.91552e-06
-1.10846e-07
7.9181e-06
-9.03752e-09
7.93916e-06
1.1367e-07
7.94559e-06
2.67176e-08
7.93857e-06
-9.43815e-08
7.92027e-06
-1.63719e-07
7.89956e-06
-1.48915e-07
7.89132e-06
-3.70006e-08
7.88664e-06
2.16216e-08
7.88907e-06
5.97127e-08
7.89949e-06
1.29659e-07
7.90429e-06
1.43234e-07
7.90571e-06
1.12077e-07
7.91128e-06
1.08229e-07
7.91513e-06
1.197e-07
7.91378e-06
1.08889e-07
7.91283e-06
9.15083e-08
8.73304e-08
7.9148e-06
8.3092e-06
3.73246e-08
8.30762e-06
-4.62596e-08
8.29698e-06
-1.00206e-07
8.29763e-06
-9.68937e-09
8.31768e-06
9.36254e-08
8.32424e-06
2.015e-08
8.31791e-06
-8.80509e-08
8.29946e-06
-1.45265e-07
8.27799e-06
-1.27448e-07
8.26967e-06
-2.86771e-08
8.26542e-06
2.58717e-08
8.26715e-06
5.79859e-08
8.27687e-06
1.19936e-07
8.28227e-06
1.37832e-07
8.28338e-06
1.10971e-07
8.28812e-06
1.03491e-07
8.29275e-06
1.15062e-07
8.29246e-06
1.09181e-07
8.29143e-06
9.25414e-08
8.5819e-08
8.29294e-06
8.70587e-06
3.31121e-08
8.70462e-06
-4.50021e-08
8.69585e-06
-9.14395e-08
8.69515e-06
-8.98509e-09
8.71338e-06
7.53918e-08
8.71937e-06
1.41554e-08
8.70928e-06
-7.79609e-08
8.69066e-06
-1.26641e-07
8.67358e-06
-1.10369e-07
8.66653e-06
-2.16264e-08
8.66261e-06
2.97917e-08
8.66358e-06
5.70151e-08
8.67244e-06
1.11074e-07
8.67834e-06
1.31931e-07
8.67942e-06
1.09891e-07
8.68325e-06
9.9665e-08
8.6883e-06
1.10006e-07
8.68912e-06
1.08368e-07
8.68826e-06
9.33977e-08
8.47563e-08
8.68932e-06
9.12157e-06
2.91657e-08
9.12066e-06
-4.40982e-08
9.11261e-06
-8.33918e-08
9.11016e-06
-6.53007e-09
9.11993e-06
6.5619e-08
9.12297e-06
1.11145e-08
9.11534e-06
-7.03316e-08
9.10188e-06
-1.13182e-07
9.08832e-06
-9.68062e-08
9.08268e-06
-1.59823e-08
9.07905e-06
3.34196e-08
9.07923e-06
5.68388e-08
9.08713e-06
1.03173e-07
9.09339e-06
1.25668e-07
9.09469e-06
1.08591e-07
9.09763e-06
9.67257e-08
9.10275e-06
1.04887e-07
9.1046e-06
1.06519e-07
9.10411e-06
9.38868e-08
8.40188e-08
9.10485e-06
9.55718e-06
2.54428e-08
9.55602e-06
-4.29305e-08
9.54878e-06
-7.61605e-08
9.54536e-06
-3.11099e-09
9.55376e-06
5.72212e-08
9.55683e-06
8.04243e-09
9.54939e-06
-6.28868e-08
9.53579e-06
-9.95795e-08
9.52326e-06
-8.42777e-08
9.51853e-06
-1.12535e-08
9.51539e-06
3.65624e-08
9.51504e-06
5.71876e-08
9.52185e-06
9.63656e-08
9.52828e-06
1.19236e-07
9.52996e-06
1.06909e-07
9.53219e-06
9.44926e-08
9.53707e-06
1.00011e-07
9.53983e-06
1.03759e-07
9.53988e-06
9.38328e-08
8.34314e-08
9.54047e-06
1.00137e-05
2.19134e-08
1.00117e-05
-4.10069e-08
1.00058e-05
-7.02122e-08
1.00027e-05
-4.78189e-11
1.00095e-05
5.04268e-08
1.00119e-05
5.70999e-09
1.00047e-05
-5.57076e-08
9.9913e-06
-8.62055e-08
9.97927e-06
-7.22495e-08
9.97503e-06
-7.01074e-09
9.97257e-06
3.90217e-08
9.97194e-06
5.78186e-08
9.97765e-06
9.06532e-08
9.98398e-06
1.12906e-07
9.98614e-06
1.04757e-07
9.98791e-06
9.27211e-08
9.99232e-06
9.56044e-08
9.99576e-06
1.0031e-07
9.99648e-06
9.31162e-08
8.28432e-08
9.99707e-06
1.0492e-05
1.85773e-08
1.04894e-05
-3.84278e-08
1.04845e-05
-6.53397e-08
1.04823e-05
2.15538e-09
1.04873e-05
4.54571e-08
1.04887e-05
4.31504e-09
1.04819e-05
-4.89168e-08
1.04691e-05
-7.33863e-08
1.04573e-05
-6.05063e-08
1.04533e-05
-3.00447e-09
1.04515e-05
4.08468e-08
1.04508e-05
5.84867e-08
1.04556e-05
8.59082e-08
1.04616e-05
1.06875e-07
1.04642e-05
1.02151e-07
1.04658e-05
9.11648e-08
1.04696e-05
9.17654e-08
1.04735e-05
9.645e-08
1.04749e-05
9.17037e-08
8.21149e-08
1.04756e-05
1.09931e-05
1.54478e-08
1.099e-05
-3.53089e-08
1.09859e-05
-6.12552e-08
1.09846e-05
3.49837e-09
1.09881e-05
4.19764e-08
1.09884e-05
3.98817e-09
1.0982e-05
-4.24849e-08
1.09699e-05
-6.13486e-08
1.09586e-05
-4.91319e-08
1.09546e-05
9.94968e-10
1.09533e-05
4.2143e-08
1.09527e-05
5.90571e-08
1.09566e-05
8.1972e-08
1.09623e-05
1.01258e-07
1.09652e-05
9.91831e-08
1.09667e-05
8.96356e-08
1.097e-05
8.84716e-08
1.09741e-05
9.24376e-08
1.09761e-05
8.96504e-08
8.11147e-08
1.09771e-05
1.15182e-05
1.25631e-08
1.15148e-05
-3.18355e-08
1.15109e-05
-5.73836e-08
1.15104e-05
3.96654e-09
1.15129e-05
3.95047e-08
1.15122e-05
4.72696e-09
1.1506e-05
-3.63026e-08
1.14949e-05
-5.02746e-08
1.1484e-05
-3.8238e-08
1.14799e-05
5.08955e-09
1.1479e-05
4.30917e-08
1.14786e-05
5.94665e-08
1.14819e-05
7.86406e-08
1.14871e-05
9.60901e-08
1.14903e-05
9.5984e-08
1.14919e-05
8.79802e-08
1.14948e-05
8.56296e-08
1.14987e-05
8.84886e-08
1.15013e-05
8.70802e-08
7.9772e-08
1.15026e-05
1.20684e-05
9.98653e-09
1.20647e-05
-2.80938e-08
1.20605e-05
-5.31992e-08
1.20608e-05
3.64695e-09
1.20628e-05
3.74854e-08
1.20612e-05
6.38502e-09
1.20551e-05
-3.02307e-08
1.2045e-05
-4.02351e-08
1.20348e-05
-2.80219e-08
1.20306e-05
9.33671e-09
1.20298e-05
4.38367e-08
1.20296e-05
5.9684e-08
1.20325e-05
7.58007e-08
1.20372e-05
9.13339e-08
1.20405e-05
9.26964e-08
1.20423e-05
8.61368e-08
1.20449e-05
8.31062e-08
1.20486e-05
8.4748e-08
1.20516e-05
8.4132e-08
7.80696e-08
1.20533e-05
1.26448e-05
7.78805e-09
1.26407e-05
-2.40407e-08
1.26357e-05
-4.81637e-08
1.26368e-05
2.54891e-09
1.26389e-05
3.5344e-08
1.26366e-05
8.70835e-09
1.26305e-05
-2.41415e-08
1.26215e-05
-3.11661e-08
1.26121e-05
-1.86911e-08
1.26078e-05
1.36887e-08
1.2607e-05
4.45702e-08
1.2607e-05
5.97152e-08
1.26095e-05
7.33344e-08
1.26138e-05
8.69751e-08
1.26172e-05
8.93604e-08
1.26192e-05
8.41045e-08
1.26215e-05
8.07653e-08
1.2625e-05
8.12716e-08
1.26282e-05
8.09523e-08
7.60195e-08
1.26303e-05
1.32487e-05
6.03148e-09
1.32443e-05
-1.96467e-08
1.32385e-05
-4.23515e-08
1.324e-05
1.04761e-09
1.32426e-05
3.27698e-08
1.32399e-05
1.13976e-08
1.32337e-05
-1.79219e-08
1.32254e-05
-2.29195e-08
1.3217e-05
-1.03239e-08
1.32128e-05
1.79701e-08
1.3212e-05
4.5372e-08
1.3212e-05
5.96316e-08
1.32142e-05
7.11707e-08
1.32182e-05
8.29671e-08
1.32216e-05
8.60077e-08
1.32238e-05
8.18949e-08
1.3226e-05
7.85191e-08
1.32292e-05
7.80625e-08
1.32325e-05
7.76924e-08
7.36703e-08
1.32348e-05
1.38815e-05
4.73976e-09
1.38772e-05
-1.54355e-08
1.38708e-05
-3.59114e-08
1.3872e-05
-1.88321e-10
1.3875e-05
2.98094e-08
1.38722e-05
1.41831e-08
1.38658e-05
-1.15183e-08
1.38582e-05
-1.53261e-08
1.38508e-05
-2.91869e-09
1.38467e-05
2.20338e-08
1.38459e-05
4.62175e-08
1.3846e-05
5.95115e-08
1.38479e-05
6.92583e-08
1.38516e-05
7.93045e-08
1.38549e-05
8.26854e-08
1.38573e-05
7.951e-08
1.38595e-05
7.62835e-08
1.38625e-05
7.5081e-08
1.38658e-05
7.44435e-08
7.10814e-08
1.38684e-05
1.45445e-05
3.91461e-09
1.45406e-05
-1.15076e-08
1.45339e-05
-2.92467e-08
1.45345e-05
-7.62246e-10
1.45376e-05
2.66471e-08
1.4535e-05
1.68226e-08
1.45285e-05
-4.98075e-09
1.45213e-05
-8.19504e-09
1.45148e-05
3.63009e-09
1.45111e-05
2.57374e-08
1.45102e-05
4.70742e-08
1.45104e-05
5.93539e-08
1.45121e-05
6.75761e-08
1.45154e-05
7.59568e-08
1.45187e-05
7.94304e-08
1.45212e-05
7.69988e-08
1.45235e-05
7.39787e-08
1.45263e-05
7.22811e-08
1.45294e-05
7.12695e-08
6.8317e-08
1.45322e-05
1.52393e-05
3.5127e-09
1.52359e-05
-8.10802e-09
1.52292e-05
-2.26072e-08
1.52288e-05
-3.63544e-10
1.52318e-05
2.36444e-08
1.52296e-05
1.90977e-08
1.52231e-05
1.52931e-09
1.52162e-05
-1.33876e-09
1.52104e-05
9.43561e-09
1.52071e-05
2.90224e-08
1.52063e-05
4.78809e-08
1.52065e-05
5.91514e-08
1.5208e-05
6.61051e-08
1.5211e-05
7.29032e-08
1.52142e-05
7.6237e-08
1.52168e-05
7.44221e-08
1.52192e-05
7.15784e-08
1.52219e-05
6.95824e-08
1.52249e-05
6.8229e-08
6.54367e-08
1.52278e-05
1.59674e-05
3.46808e-09
1.59645e-05
-5.22375e-09
1.59582e-05
-1.62819e-08
1.59567e-05
1.08407e-09
1.59592e-05
2.11619e-08
1.59574e-05
2.09254e-08
1.59511e-05
7.78183e-09
1.59445e-05
5.30253e-09
1.59392e-05
1.46994e-08
1.59363e-05
3.19004e-08
1.59357e-05
4.85402e-08
1.59359e-05
5.89024e-08
1.59372e-05
6.47854e-08
1.594e-05
7.01538e-08
1.59431e-05
7.31218e-08
1.59457e-05
7.17853e-08
1.59482e-05
6.91273e-08
1.59509e-05
6.68899e-08
1.59538e-05
6.53296e-08
6.25122e-08
1.59567e-05
1.67304e-05
3.70718e-09
1.67277e-05
-2.58725e-09
1.6722e-05
-1.05598e-08
1.67197e-05
3.39374e-09
1.67213e-05
1.95076e-08
1.67199e-05
2.23546e-08
1.67142e-05
1.35331e-08
1.67078e-05
1.17037e-08
1.67029e-05
1.9604e-08
1.67003e-05
3.44431e-08
1.66998e-05
4.90214e-08
1.67002e-05
5.85341e-08
1.67014e-05
6.35789e-08
1.67039e-05
6.76744e-08
1.67069e-05
7.01478e-08
1.67096e-05
6.90797e-08
1.67121e-05
6.66495e-08
1.67148e-05
6.41835e-08
1.67176e-05
6.25021e-08
5.96389e-08
1.67205e-05
1.75299e-05
4.14445e-09
1.75275e-05
-1.42853e-10
1.75224e-05
-5.47764e-09
1.75194e-05
6.35654e-09
1.75201e-05
1.88707e-08
1.75189e-05
2.35613e-08
1.75138e-05
1.86097e-08
1.75077e-05
1.77845e-08
1.75031e-05
2.42239e-08
1.75008e-05
3.67627e-08
1.75004e-05
4.93792e-08
1.7501e-05
5.79846e-08
1.75021e-05
6.24252e-08
1.75044e-05
6.54182e-08
1.75072e-05
6.7328e-08
1.75099e-05
6.63539e-08
1.75124e-05
6.41204e-08
1.75151e-05
6.1501e-08
1.7518e-05
5.9674e-08
5.6852e-08
1.75207e-05
1.83678e-05
4.70426e-09
1.83653e-05
2.30649e-09
1.83609e-05
-1.06742e-09
1.83576e-05
9.67178e-09
1.83572e-05
1.92722e-08
1.8356e-05
2.47852e-08
1.83516e-05
2.29713e-08
1.8346e-05
2.34043e-08
1.83416e-05
2.85892e-08
1.83395e-05
3.89516e-08
1.83392e-05
4.96682e-08
1.83399e-05
5.72867e-08
1.83411e-05
6.12323e-08
1.83431e-05
6.33519e-08
1.83458e-05
6.46331e-08
1.83485e-05
6.36576e-08
1.83511e-05
6.15478e-08
1.83537e-05
5.88392e-08
1.83566e-05
5.68474e-08
5.40937e-08
1.83593e-05
1.92458e-05
5.3308e-09
1.92432e-05
4.83788e-09
1.92394e-05
2.8068e-09
1.9236e-05
1.30605e-08
1.92347e-05
2.0579e-08
1.92332e-05
2.62575e-08
1.92295e-05