/*--------------------------------*- C++ -*----------------------------------*\
| =========                 |                                                 |
| \\      /  F ield         | OpenFOAM: The Open Source CFD Toolbox           |
|  \\    /   O peration     | Version:  3.0.1                                 |
|   \\  /    A nd           | Web:      www.OpenFOAM.org                      |
|    \\/     M anipulation  |                                                 |
\*---------------------------------------------------------------------------*/
FoamFile
{
    version     2.0;
    format      ascii;
    class       volVectorField;
    location    "2.7";
    object      U;
}
// * * * * * * * * * * * * * * * * * * * * * * * * * * * * * * * * * * * * * //

dimensions      [0 1 -1 0 0 0 0];

internalField   nonuniform List<vector> 
9600
(
(0.855356 0.00169113 0)
(1.12719 -0.00304124 0)
(0.859045 -0.00430716 0)
(1.16758 0.0028779 0)
(0.915885 0.0106676 0)
(1.04219 -0.000319076 0)
(0.841674 -0.00135414 0)
(1.12321 -0.016606 0)
(0.850914 -0.0125043 0)
(1.15235 -0.00301918 0)
(0.908688 -0.00226018 0)
(1.09712 0.00803931 0)
(0.927916 0.011183 0)
(1.05295 0.00997973 0)
(0.907203 0.0142311 0)
(1.03821 -0.00488206 0)
(0.873742 0.00999588 0)
(1.048 -0.0107772 0)
(0.842971 0.00106672 0)
(1.0554 -0.0187275 0)
(0.865217 0.00173127 0)
(1.11459 -0.00288427 0)
(0.869847 -0.00484081 0)
(1.15563 0.00247812 0)
(0.927636 0.0114997 0)
(1.0308 0.000708683 0)
(0.863568 -0.00256322 0)
(1.0964 -0.0165061 0)
(0.871205 -0.0132027 0)
(1.12887 -0.00362977 0)
(0.930027 -0.00164375 0)
(1.07642 0.00790624 0)
(0.952687 0.0117107 0)
(1.02509 0.0104904 0)
(0.944075 0.0143591 0)
(0.996068 -0.00396483 0)
(0.93215 0.0095585 0)
(0.981859 -0.0102708 0)
(0.939211 0.0011272 0)
(0.95361 -0.0203966 0)
(0.884044 0.00181073 0)
(1.09302 -0.00279948 0)
(0.890836 -0.00533316 0)
(1.13058 0.00218199 0)
(0.94866 0.0125946 0)
(1.01698 0.00133907 0)
(0.895444 -0.00337846 0)
(1.0638 -0.0164555 0)
(0.9071 -0.0138014 0)
(1.08995 -0.00421247 0)
(0.9639 -0.00103839 0)
(1.04352 0.00766333 0)
(0.97857 0.0125568 0)
(1.00008 0.0108623 0)
(0.96798 0.014751 0)
(0.981276 -0.0035305 0)
(0.958664 0.00940556 0)
(0.977453 -0.00989394 0)
(0.964626 0.00133075 0)
(0.96542 -0.0154771 0)
(0.908657 0.00191616 0)
(1.06726 -0.00276475 0)
(0.917565 -0.0056987 0)
(1.09729 0.00187717 0)
(0.971304 0.0134576 0)
(1.00681 0.00189892 0)
(0.928009 -0.00384038 0)
(1.03383 -0.0165823 0)
(0.943513 -0.0141572 0)
(1.05155 -0.00485075 0)
(0.992159 -0.000481822 0)
(1.01779 0.00758804 0)
(0.989972 0.0132025 0)
(0.989677 0.0111448 0)
(0.977199 0.0150003 0)
(0.981441 -0.00332144 0)
(0.970363 0.00940495 0)
(0.981286 -0.00997804 0)
(0.974202 0.0015078 0)
(0.972544 -0.0141015 0)
(0.934645 0.00204047 0)
(1.04286 -0.00276061 0)
(0.943784 -0.00596892 0)
(1.0632 0.001515 0)
(0.989134 0.0140898 0)
(1.00288 0.00239148 0)
(0.954851 -0.00407647 0)
(1.01297 -0.016786 0)
(0.969093 -0.0143605 0)
(1.02458 -0.00544332 0)
(1.00656 -9.26828e-05 0)
(1.00502 0.00775267 0)
(0.992303 0.0136071 0)
(0.987673 0.0114231 0)
(0.983174 0.0150267 0)
(0.985764 -0.00303065 0)
(0.978644 0.00906899 0)
(0.986595 -0.0096463 0)
(0.980637 0.00132635 0)
(0.977989 -0.0127269 0)
(0.957847 0.00216472 0)
(1.02407 -0.00277885 0)
(0.964804 -0.00614117 0)
(1.03457 0.00118852 0)
(0.999664 0.0144915 0)
(1.00413 0.00278634 0)
(0.974381 -0.00412358 0)
(1.00214 -0.0169594 0)
(0.982255 -0.0144874 0)
(1.00939 -0.0059171 0)
(1.00988 0.000126755 0)
(1.00018 0.00805208 0)
(0.993069 0.0139034 0)
(0.989385 0.0116014 0)
(0.989312 0.0149486 0)
(0.991683 -0.00279534 0)
(0.985934 0.00871001 0)
(0.992282 -0.00920486 0)
(0.986134 0.00111237 0)
(0.982757 -0.0110932 0)
(0.975671 0.0022645 0)
(1.01234 -0.00279696 0)
(0.979004 -0.00621003 0)
(1.01422 0.000935624 0)
(1.00398 0.0146361 0)
(1.00761 0.00307307 0)
(0.988036 -0.00403339 0)
(0.998506 -0.0170449 0)
(0.987097 -0.0145393 0)
(1.00122 -0.00627997 0)
(1.00765 0.000223391 0)
(0.998064 0.00833808 0)
(0.994523 0.0140957 0)
(0.992966 0.0116658 0)
(0.995394 0.0147746 0)
(0.997603 -0.00256067 0)
(0.992361 0.0083495 0)
(0.997242 -0.00862944 0)
(0.990839 0.000872245 0)
(0.986701 -0.00935694 0)
(0.987556 0.00232544 0)
(1.00649 -0.00279743 0)
(0.987306 -0.00619138 0)
(1.00175 0.000742631 0)
(1.00472 0.01456 0)
(1.01087 0.00325855 0)
(0.997653 -0.00386797 0)
(0.998634 -0.0170139 0)
(0.988168 -0.0145017 0)
(0.996104 -0.00656481 0)
(1.00356 0.000237838 0)
(0.99647 0.00851839 0)
(0.996312 0.0141656 0)
(0.997028 0.0116312 0)
(1.00086 0.0145404 0)
(1.00251 -0.00229045 0)
(0.997606 0.00798209 0)
(1.00105 -0.00792978 0)
(0.994627 0.000618976 0)
(0.989822 -0.00758517 0)
(0.994494 0.00234723 0)
(1.0042 -0.00277778 0)
(0.9917 -0.00610972 0)
(0.995059 0.000593138 0)
(1.00413 0.0143368 0)
(1.01284 0.0033468 0)
(1.00437 -0.00367409 0)
(1.00012 -0.0168685 0)
(0.988274 -0.0143737 0)
(0.992396 -0.0067858 0)
(0.999267 0.000189569 0)
(0.99487 0.00857229 0)
(0.997845 0.0141163 0)
(1.00052 0.0115103 0)
(1.00518 0.0142769 0)
(1.00604 -0.00196579 0)
(1.00141 0.00759859 0)
(1.00363 -0.00711369 0)
(0.997398 0.000355559 0)
(0.992164 -0.00584323 0)
(0.998098 0.002339 0)
(1.00347 -0.00274427 0)
(0.994009 -0.00598523 0)
(0.991919 0.000472364 0)
(1.00336 0.0140328 0)
(1.0135 0.00335481 0)
(1.0088 -0.00347878 0)
(1.00175 -0.0166345 0)
(0.988531 -0.0141617 0)
(0.98976 -0.0069355 0)
(0.995458 9.7252e-05 0)
(0.993195 0.00851141 0)
(0.998747 0.0139527 0)
(1.00287 0.0113295 0)
(1.00799 0.0139892 0)
(1.00813 -0.00158219 0)
(1.00374 0.00719742 0)
(1.00507 -0.00620234 0)
(0.999188 7.71252e-05 0)
(0.993783 -0.0041923 0)
(0.999819 0.00231237 0)
(1.00318 -0.00270413 0)
(0.995381 -0.00583469 0)
(0.990702 0.000369316 0)
(1.00268 0.0136913 0)
(1.01323 0.00330857 0)
(1.01138 -0.00329684 0)
(1.00306 -0.0163402 0)
(0.989106 -0.0138822 0)
(0.98815 -0.0070108 0)
(0.992469 -1.79367e-05 0)
(0.991509 0.00835705 0)
(0.998881 0.0136896 0)
(1.00396 0.0111142 0)
(1.00926 0.0136749 0)
(1.00894 -0.00114616 0)
(1.0048 0.0067843 0)
(1.00558 -0.00522669 0)
(1.00016 -0.0001914 0)
(0.994795 -0.00267666 0)
(1.00061 0.00227646 0)
(1.00295 -0.00266272 0)
(0.996351 -0.00567132 0)
(0.990412 0.000281777 0)
(1.00206 0.013335 0)
(1.01248 0.00322139 0)
(1.0126 -0.00313552 0)
(1.00396 -0.0160096 0)
(0.989844 -0.0135542 0)
(0.987405 -0.00701338 0)
(0.990418 -0.000139292 0)
(0.989959 0.00814352 0)
(0.998363 0.013354 0)
(1.00399 0.0108779 0)
(1.0093 0.0133302 0)
(1.00881 -0.000668042 0)
(1.00496 0.00636031 0)
(1.00544 -0.00423326 0)
(1.00057 -0.000411619 0)
(0.995358 -0.0013287 0)
(1.00097 0.0022363 0)
(1.00274 -0.00262327 0)
(0.997101 -0.00550152 0)
(0.990507 0.000208773 0)
(1.00148 0.0129752 0)
(1.01156 0.00311025 0)
(1.01294 -0.0029957 0)
(1.00452 -0.0156585 0)
(0.990585 -0.0131964 0)
(0.987247 -0.00695173 0)
(0.989225 -0.000256818 0)
(0.988686 0.0079085 0)
(0.997469 0.0129683 0)
(1.00335 0.0106347 0)
(1.00855 0.012954 0)
(1.00812 -0.000167426 0)
(1.0046 0.00593217 0)
(1.00494 -0.00325649 0)
(1.00065 -0.000563338 0)
(0.995643 -0.000168561 0)
(1.00114 0.00219385 0)
(1.00256 -0.00258676 0)
(0.997676 -0.00532783 0)
(0.990728 0.000149317 0)
(1.00095 0.0126165 0)
(1.01068 0.00298731 0)
(1.01277 -0.00287668 0)
(1.00481 -0.0152953 0)
(0.991247 -0.0128245 0)
(0.987402 -0.00683891 0)
(0.988685 -0.000366363 0)
(0.987753 0.00767743 0)
(0.996479 0.0125471 0)
(1.00242 0.0103988 0)
(1.00746 0.012543 0)
(1.00722 0.00033494 0)
(1.00402 0.00550283 0)
(1.0043 -0.00233492 0)
(1.0006 -0.000628382 0)
(0.995794 0.000797934 0)
(1.00121 0.00214976 0)
(1.00243 -0.00255296 0)
(0.998097 -0.00515092 0)
(0.990971 0.000101555 0)
(1.00053 0.0122592 0)
(1.00994 0.00285795 0)
(1.01237 -0.00277596 0)
(1.00493 -0.0149228 0)
(0.991809 -0.0124479 0)
(0.987679 -0.00668399 0)
(0.988568 -0.000465698 0)
(0.987146 0.00746532 0)
(0.995584 0.0121051 0)
(1.00147 0.0101688 0)
(1.00632 0.0121072 0)
(1.00631 0.000832018 0)
(1.00345 0.00509459 0)
(1.00368 -0.00148616 0)
(1.00055 -0.00060202 0)
(0.995917 0.00158048 0)
(1.00125 0.00210416 0)
(1.00232 -0.002521 0)
(0.998391 -0.00497103 0)
(0.991211 6.2821e-05 0)
(1.00025 0.0119009 0)
(1.00934 0.00272604 0)
(1.01192 -0.00269079 0)
(1.00491 -0.01454 0)
(0.992278 -0.0120741 0)
(0.987983 -0.00649165 0)
(0.988696 -0.00056249 0)
(0.986818 0.00727858 0)
(0.994883 0.0116533 0)
(1.00067 0.00994119 0)
(1.00532 0.0116527 0)
(1.00551 0.0013154 0)
(1.00298 0.00473002 0)
(1.00315 -0.000713112 0)
(1.00056 -0.000486889 0)
(0.99607 0.00219285 0)
(1.00128 0.00205703 0)
(1.00221 -0.00248969 0)
(0.998593 -0.00478852 0)
(0.991451 3.02969e-05 0)
(1.00011 0.0115387 0)
(1.00887 0.0025957 0)
(1.01147 -0.00261912 0)
(1.0048 -0.0141441 0)
(0.992667 -0.0117091 0)
(0.988283 -0.00626546 0)
(0.988959 -0.000662384 0)
(0.986719 0.00711056 0)
(0.994407 0.0111967 0)
(1.00009 0.00971535 0)
(1.00451 0.0111912 0)
(1.00486 0.00175467 0)
(1.00265 0.0044169 0)
(1.00272 7.10483e-06 0)
(1.00062 -0.000306387 0)
(0.996275 0.00266267 0)
(1.00129 0.00200842 0)
(1.00211 -0.00245814 0)
(0.998728 -0.00460393 0)
(0.991703 1.55423e-06 0)
(1.00005 0.0111708 0)
(1.0085 0.00246898 0)
(1.01105 -0.00255945 0)
(1.00465 -0.0137322 0)
(0.992991 -0.0113554 0)
(0.988581 -0.00601188 0)
(0.989296 -0.00076636 0)
(0.986808 0.00695821 0)
(0.99414 0.010741 0)
(0.99971 0.00947282 0)
(1.0039 0.0107477 0)
(1.00437 0.00214682 0)
(1.00243 0.00416975 0)
(1.00239 0.000664588 0)
(1.00073 -7.93682e-05 0)
(0.996533 0.0030279 0)
(1.00128 0.00195836 0)
(1.00202 -0.0024255 0)
(0.998816 -0.00441812 0)
(0.991976 -2.4187e-05 0)
(1.00004 0.0107951 0)
(1.00818 0.00234855 0)
(1.01066 -0.00251272 0)
(1.00448 -0.0133 0)
(0.993263 -0.0110166 0)
(0.988886 -0.00573236 0)
(0.989672 -0.0008772 0)
(0.987038 0.00681238 0)
(0.994033 0.0102908 0)
(0.999509 0.00921777 0)
(1.00343 0.0103219 0)
(1.00398 0.00248694 0)
(1.00229 0.00396828 0)
(1.00214 0.00122826 0)
(1.00086 0.000178674 0)
(0.996836 0.00330469 0)
(1.00125 0.00190666 0)
(1.00196 -0.00239076 0)
(0.998864 -0.00423254 0)
(0.992279 -4.62169e-05 0)
(1.00003 0.0104095 0)
(1.0079 0.00223684 0)
(1.01027 -0.00247928 0)
(1.00432 -0.0128475 0)
(0.993495 -0.0106908 0)
(0.989207 -0.0054314 0)
(0.990064 -0.000991869 0)
(0.98737 0.00666307 0)
(0.994027 0.00986032 0)
(0.999433 0.00893902 0)
(1.00306 0.00992234 0)
(1.00367 0.00278809 0)
(1.00219 0.00380026 0)
(1.00194 0.00174195 0)
(1.00099 0.00046181 0)
(0.997173 0.00350284 0)
(1.00118 0.00185325 0)
(1.00192 -0.00235313 0)
(0.998878 -0.00404887 0)
(0.992611 -6.36175e-05 0)
(1.00002 0.0100135 0)
(1.00766 0.00213481 0)
(1.00986 -0.00245853 0)
(1.00417 -0.012373 0)
(0.993699 -0.0103814 0)
(0.989546 -0.00511559 0)
(0.990456 -0.00110808 0)
(0.987769 0.00650049 0)
(0.994069 0.00945796 0)
(0.999434 0.00862481 0)
(1.00273 0.00956387 0)
(1.00339 0.00306992 0)
(1.00212 0.00366808 0)
(1.00178 0.00222709 0)
(1.00109 0.000773185 0)
(0.997536 0.00363528 0)
(1.00109 0.00179807 0)
(1.00191 -0.00231157 0)
(0.998863 -0.00386958 0)
(0.992971 -7.47273e-05 0)
(0.999985 0.0096065 0)
(1.00743 0.00204386 0)
(1.00944 -0.00245014 0)
(1.00403 -0.0118757 0)
(0.993883 -0.0100883 0)
(0.989902 -0.00478769 0)
(0.990841 -0.00121856 0)
(0.98821 0.00631293 0)
(0.994125 0.00909062 0)
(0.999479 0.00828279 0)
(1.00242 0.00923178 0)
(1.00314 0.00331584 0)
(1.00205 0.0035443 0)
(1.00165 0.002679 0)
(1.00117 0.00111095 0)
(0.997917 0.0037048 0)
(1.00097 0.00174083 0)
(1.00192 -0.00226442 0)
(0.998828 -0.00369688 0)
(0.993347 -7.86643e-05 0)
(0.999937 0.0091855 0)
(1.00722 0.00196532 0)
(1.009 -0.00245573 0)
(1.0039 -0.0113621 0)
(0.994058 -0.00979831 0)
(0.990268 -0.00445396 0)
(0.991216 -0.00131537 0)
(0.988677 0.00609664 0)
(0.994176 0.00875972 0)
(0.999545 0.0079128 0)
(1.00212 0.00891261 0)
(1.00289 0.00355455 0)
(1.00198 0.00342107 0)
(1.00154 0.00308473 0)
(1.00122 0.00147492 0)
(0.998308 0.00371622 0)
(1.00085 0.00168135 0)
(1.00195 -0.00221129 0)
(0.998786 -0.0035309 0)
(0.99373 -7.39943e-05 0)
(0.999883 0.00875033 0)
(1.00702 0.00189969 0)
(1.00855 -0.00247482 0)
(1.00377 -0.0108308 0)
(0.994232 -0.00951905 0)
(0.990638 -0.00412972 0)
(0.991582 -0.00138923 0)
(0.989159 0.00584199 0)
(0.994219 0.0084588 0)
(0.999618 0.00753044 0)
(1.00184 0.00859948 0)
(1.00263 0.00380189 0)
(1.00192 0.00331563 0)
(1.00146 0.00342674 0)
(1.00124 0.00187702 0)
(0.998699 0.00369299 0)
(1.00073 0.00161988 0)
(1.00196 -0.00215159 0)
(0.998747 -0.00337406 0)
(0.994107 -5.8816e-05 0)
(0.999831 0.00830361 0)
(1.00681 0.00184556 0)
(1.00811 -0.00250177 0)
(1.00364 -0.010293 0)
(0.994414 -0.0092439 0)
(0.991008 -0.00381516 0)
(0.991943 -0.00143111 0)
(0.989648 0.00555558 0)
(0.99426 0.00818869 0)
(0.999689 0.00715213 0)
(1.00159 0.00827996 0)
(1.00236 0.00405754 0)
(1.00187 0.00322927 0)
(1.0014 0.00368872 0)
(1.00123 0.00231139 0)
(0.999079 0.00365651 0)
(1.00062 0.00155593 0)
(1.00197 -0.00208248 0)
(0.998723 -0.00323102 0)
(0.994469 -3.22382e-05 0)
(0.99979 0.00784567 0)
(1.00659 0.00180236 0)
(1.00768 -0.00253312 0)
(1.0035 -0.00975601 0)
(0.994611 -0.00895738 0)
(0.991373 -0.0035203 0)
(0.992302 -0.00144238 0)
(0.990139 0.00524192 0)
(0.994302 0.0079428 0)
(0.999751 0.00678799 0)
(1.00136 0.00794797 0)
(1.00207 0.00433074 0)
(1.00181 0.00317333 0)
(1.00137 0.00386441 0)
(1.0012 0.0027624 0)
(0.999433 0.00362819 0)
(1.00053 0.00148888 0)
(1.00195 -0.00200253 0)
(0.99872 -0.0031021 0)
(0.994809 4.92178e-06 0)
(0.999764 0.00737751 0)
(1.00634 0.0017678 0)
(1.00728 -0.00256704 0)
(1.00334 -0.00921758 0)
(0.994823 -0.00865505 0)
(0.99173 -0.0032524 0)
(0.992663 -0.00142076 0)
(0.990627 0.00490866 0)
(0.994351 0.00771051 0)
(0.9998 0.0064458 0)
(1.00118 0.00759923 0)
(1.00179 0.0045984 0)
(1.00176 0.00315585 0)
(1.00137 0.0039615 0)
(1.00116 0.00321198 0)
(0.999747 0.00364307 0)
(1.00046 0.00141957 0)
(1.00191 -0.00191398 0)
(0.998738 -0.00298509 0)
(0.995127 5.08202e-05 0)
(0.999756 0.0069026 0)
(1.00609 0.00173382 0)
(1.00689 -0.00259504 0)
(1.00317 -0.008695 0)
(0.995051 -0.00833254 0)
(0.99208 -0.00300818 0)
(0.993025 -0.001368 0)
(0.991112 0.00456215 0)
(0.994411 0.00748508 0)
(0.999831 0.00613437 0)
(1.00105 0.0072348 0)
(1.00149 0.0048492 0)
(1.00169 0.00318789 0)
(1.0014 0.00398814 0)
(1.00113 0.00362159 0)
(1.00001 0.00372725 0)
(1.00042 0.00134851 0)
(1.00186 -0.00181661 0)
(0.998774 -0.00288186 0)
(0.995425 0.00010488 0)
(0.999763 0.00642589 0)
(1.00581 0.00170391 0)
(1.00652 -0.00261112 0)
(1.003 -0.00819995 0)
(0.995288 -0.00799064 0)
(0.992424 -0.00279442 0)
(0.993388 -0.00128968 0)
(0.991595 0.00421212 0)
(0.994484 0.00726066 0)
(0.999845 0.00586079 0)
(1.00096 0.00685393 0)
(1.00121 0.00507895 0)
(1.00161 0.00327702 0)
(1.00145 0.00395778 0)
(1.0011 0.00396643 0)
(1.0002 0.00390041 0)
(1.00038 0.00127398 0)
(1.00179 -0.00170707 0)
(0.998823 -0.00279189 0)
(0.995707 0.000162488 0)
(0.999783 0.00595344 0)
(1.00553 0.00167235 0)
(1.00615 -0.00261018 0)
(1.00282 -0.00772919 0)
(0.995532 -0.0076375 0)
(0.992761 -0.00260111 0)
(0.993747 -0.00118932 0)
(0.992076 0.00386956 0)
(0.99457 0.00702629 0)
(0.99984 0.00562809 0)
(1.00091 0.0064663 0)
(1.00095 0.00527198 0)
(1.0015 0.00341832 0)
(1.00152 0.00389388 0)
(1.0011 0.00422276 0)
(1.00034 0.00415551 0)
(1.00036 0.00119834 0)
(1.00171 -0.00159108 0)
(0.99888 -0.00271008 0)
(0.995976 0.000219525 0)
(0.99981 0.00549155 0)
(1.00524 0.00162396 0)
(1.0058 -0.0025825 0)
(1.00264 -0.0072862 0)
(0.995777 -0.00726841 0)
(0.993094 -0.00241976 0)
(0.994101 -0.00107523 0)
(0.992555 0.00353423 0)
(0.994673 0.00679096 0)
(0.999817 0.0054308 0)
(1.0009 0.00608286 0)
(1.00072 0.00541876 0)
(1.00137 0.00360902 0)
(1.0016 0.0038294 0)
(1.00114 0.00437463 0)
(1.00043 0.00444157 0)
(1.00034 0.00112106 0)
(1.00162 -0.00146865 0)
(0.998941 -0.00263615 0)
(0.996234 0.000275008 0)
(0.999841 0.00504666 0)
(1.00495 0.00155351 0)
(1.00545 -0.00252963 0)
(1.00246 -0.00686954 0)
(0.996022 -0.00689323 0)
(0.993423 -0.00225448 0)
(0.994445 -0.000946444 0)
(0.993036 0.00321681 0)
(0.994793 0.00655217 0)
(0.999777 0.00527207 0)
(1.00091 0.00570733 0)
(1.00052 0.00550919 0)
(1.00122 0.00383071 0)
(1.00167 0.0037874 0)
(1.00122 0.00443117 0)
(1.00049 0.00469838 0)
(1.00032 0.00104285 0)
(1.00153 -0.00134145 0)
(0.999005 -0.00256691 0)
(0.996485 0.000320463 0)
(0.999871 0.00463102 0)
(1.00467 0.001458 0)
(1.00511 -0.00245574 0)
(1.00229 -0.00646495 0)
(0.996266 -0.0065266 0)
(0.993749 -0.00210471 0)
(0.994776 -0.000807856 0)
(0.993514 0.00292183 0)
(0.994932 0.00629887 0)
(0.999722 0.00515091 0)
(1.00095 0.00535183 0)
(1.00038 0.00554104 0)
(1.00104 0.00406272 0)
(1.00172 0.00378201 0)
(1.00134 0.00442532 0)
(1.00056 0.0048813 0)
(1.0003 0.000964433 0)
(1.00144 -0.00121221 0)
(0.999069 -0.00249462 0)
(0.99673 0.000343233 0)
(0.999898 0.00425082 0)
(1.00439 0.00134118 0)
(1.00477 -0.00236983 0)
(1.00211 -0.00606331 0)
(0.996507 -0.00616443 0)
(0.994075 -0.00196285 0)
(0.995095 -0.000664496 0)
(0.993988 0.00265594 0)
(0.995091 0.00604089 0)
(0.999653 0.00505815 0)
(1.001 0.00502608 0)
(1.00027 0.00551739 0)
(1.00086 0.00429814 0)
(1.00175 0.00380967 0)
(1.00147 0.00439161 0)
(1.00066 0.00497638 0)
(1.00028 0.000887044 0)
(1.00134 -0.00108494 0)
(0.99913 -0.00241477 0)
(0.99697 0.000339656 0)
(0.999921 0.00390208 0)
(1.00412 0.00120955 0)
(1.00444 -0.0022855 0)
(1.00194 -0.00567126 0)
(0.996743 -0.0058053 0)
(0.994401 -0.00183343 0)
(0.9954 -0.000513281 0)
(0.994455 0.00242271 0)
(0.995269 0.00578035 0)
(0.999572 0.00498861 0)
(1.00105 0.00473073 0)
(1.00022 0.00543931 0)
(1.00068 0.00452137 0)
(1.00174 0.0038577 0)
(1.00162 0.0043509 0)
(1.00079 0.0050045 0)
(1.00026 0.000811735 0)
(1.00124 -0.000963557 0)
(0.999188 -0.00231696 0)
(0.997204 0.000307496 0)
(0.99994 0.00358124 0)
(1.00384 0.00106749 0)
(1.00412 -0.0022075 0)
(1.00177 -0.00528839 0)
(0.996973 -0.0054448 0)
(0.994728 -0.00171514 0)
(0.995693 -0.000361964 0)
(0.994913 0.00221968 0)
(0.995469 0.00551502 0)
(0.999482 0.00493568 0)
(1.0011 0.00447282 0)
(1.00022 0.00530128 0)
(1.00051 0.00471241 0)
(1.0017 0.0039307 0)
(1.00176 0.00430904 0)
(1.00094 0.00499398 0)
(1.00025 0.000738862 0)
(1.00114 -0.00085146 0)
(0.999241 -0.00219491 0)
(0.997434 0.000246567 0)
(0.999956 0.00327444 0)
(1.00357 0.000932646 0)
(1.0038 -0.00213464 0)
(1.0016 -0.00490983 0)
(0.997195 -0.00508354 0)
(0.995056 -0.00159508 0)
(0.995977 -0.000206585 0)
(0.995361 0.00205284 0)
(0.995689 0.00524273 0)
(0.999387 0.00488709 0)
(1.00114 0.00425097 0)
(1.00026 0.00511227 0)
(1.00035 0.00486582 0)
(1.00163 0.00402852 0)
(1.00189 0.00425132 0)
(1.00111 0.0049552 0)
(1.00023 0.00067125 0)
(1.00105 -0.000755172 0)
(0.999289 -0.00204878 0)
(0.997655 0.000163304 0)
(0.999971 0.00297271 0)
(1.00331 0.000823258 0)
(1.0035 -0.00205795 0)
(1.00144 -0.00454046 0)
(0.99741 -0.0047124 0)
(0.995384 -0.0014708 0)
(0.996252 -5.41157e-05 0)
(0.995796 0.00191614 0)
(0.995931 0.00495686 0)
(0.99929 0.00483598 0)
(1.00116 0.00407416 0)
(1.00034 0.0048862 0)
(1.00022 0.00496779 0)
(1.00152 0.00415501 0)
(1.002 0.00419134 0)
(1.00129 0.00489188 0)
(1.00021 0.000606576 0)
(1.00095 -0.000669053 0)
(0.999329 -0.00189026 0)
(0.997867 7.65791e-05 0)
(0.999985 0.00266594 0)
(1.00305 0.000730699 0)
(1.00321 -0.00196965 0)
(1.0013 -0.0041796 0)
(0.997616 -0.00432751 0)
(0.995709 -0.0013474 0)
(0.996517 8.29904e-05 0)
(0.996212 0.00179586 0)
(0.99619 0.00465604 0)
(0.999199 0.00476617 0)
(1.00116 0.0039351 0)
(1.00045 0.00463609 0)
(1.00013 0.00500665 0)
(1.00139 0.00430369 0)
(1.00209 0.0041485 0)
(1.0015 0.00479442 0)
(1.00019 0.000546038 0)
(1.00086 -0.000602375 0)
(0.999363 -0.00172156 0)
(0.998065 -1.2318e-06 0)
(1 0.00235091 0)
(1.0028 0.000640997 0)
(1.00293 -0.00186751 0)
(1.00116 -0.00382117 0)
(0.997816 -0.00393392 0)
(0.996031 -0.00121235 0)
(0.996771 0.000210542 0)
(0.996607 0.00169532 0)
(0.996465 0.00434835 0)
(0.999117 0.00467075 0)
(1.00114 0.00383326 0)
(1.00058 0.00438633 0)
(1.0001 0.00497513 0)
(1.00124 0.00444666 0)
(1.00214 0.00413585 0)
(1.0017 0.00466743 0)
(1.00018 0.000492597 0)
(1.00077 -0.000560884 0)
(0.999392 -0.00154927 0)
(0.99825 -6.55028e-05 0)
(1.00002 0.00203904 0)
(1.00256 0.000553069 0)
(1.00267 -0.00175272 0)
(1.00104 -0.00346279 0)
(0.99801 -0.00353966 0)
(0.996347 -0.00106336 0)
(0.997015 0.000326942 0)
(0.996978 0.00160723 0)
(0.996751 0.0040355 0)
(0.999054 0.00455328 0)
(1.00109 0.00376326 0)
(1.00072 0.00415324 0)
(1.00012 0.00488318 0)
(1.0011 0.00456453 0)
(1.00214 0.00416431 0)
(1.00191 0.0045342 0)
(1.00016 0.000443085 0)
(1.0007 -0.000538363 0)
(0.999418 -0.00138392 0)
(0.998419 -0.000105839 0)
(1.00004 0.00173521 0)
(1.00234 0.000463043 0)
(1.00242 -0.00163351 0)
(1.00093 -0.00312328 0)
(0.998199 -0.00314053 0)
(0.996655 -0.000895075 0)
(0.997248 0.000442276 0)
(0.997325 0.00153277 0)
(0.99705 0.00373222 0)
(0.999017 0.00441575 0)
(1.00103 0.00370983 0)
(1.00087 0.00394114 0)
(1.00019 0.0047463 0)
(1.00098 0.00464051 0)
(1.00211 0.00421855 0)
(1.00208 0.00441701 0)
(1.00014 0.000398469 0)
(1.00063 -0.000521459 0)
(0.999445 -0.00124423 0)
(0.998575 -0.00012398 0)
(1.00006 0.00144727 0)
(1.00214 0.000356791 0)
(1.00219 -0.00150969 0)
(1.00083 -0.00280752 0)
(0.998384 -0.00272864 0)
(0.996955 -0.00070546 0)
(0.997469 0.000562047 0)
(0.997648 0.00148704 0)
(0.997359 0.00344744 0)
(0.999011 0.00425941 0)
(1.00096 0.00367533 0)
(1.001 0.0037579 0)
(1.0003 0.00457344 0)
(1.0009 0.00466834 0)
(1.00204 0.00427797 0)
(1.00222 0.00433488 0)
(1.00013 0.000351195 0)
(1.00056 -0.00049867 0)
(0.999474 -0.00113339 0)
(0.998718 -0.000121412 0)
(1.00007 0.00116834 0)
(1.00196 0.000249434 0)
(1.00199 -0.00140246 0)
(1.00076 -0.00249145 0)
(0.998565 -0.00233878 0)
(0.99724 -0.000524302 0)
(0.997678 0.000679803 0)
(0.997945 0.00147093 0)
(0.997673 0.00319062 0)
(0.999042 0.00408754 0)
(1.00088 0.00364984 0)
(1.00112 0.00361139 0)
(1.00045 0.00438024 0)
(1.00085 0.00465582 0)
(1.00196 0.00433339 0)
(1.00231 0.00428668 0)
(1.00011 0.00031182 0)
(1.0005 -0.000489036 0)
(0.999505 -0.00103396 0)
(0.998846 -0.000103098 0)
(1.00009 0.000977687 0)
(1.0018 0.000183966 0)
(1.0018 -0.00126346 0)
(1.00069 -0.00217982 0)
(0.998736 -0.0020274 0)
(0.997516 -0.000386754 0)
(0.997881 0.000767797 0)
(0.99822 0.00145598 0)
(0.99799 0.00295262 0)
(0.999112 0.00389351 0)
(1.00082 0.00361011 0)
(1.00123 0.00349575 0)
(1.00063 0.0041731 0)
(1.00085 0.00459245 0)
(1.00187 0.00436806 0)
(1.00236 0.00425444 0)
(1.00009 0.000276248 0)
(1.00045 -0.00048201 0)
(0.99954 -0.000947052 0)
(0.998971 -6.21548e-05 0)
(1.00011 0.00085829 0)
(1.00165 0.000143471 0)
(1.00164 -0.00109594 0)
(1.00064 -0.00191196 0)
(0.998907 -0.00178772 0)
(0.997791 -0.000291102 0)
(0.99808 0.000824436 0)
(0.99847 0.0014462 0)
(0.998296 0.00274476 0)
(0.999211 0.00369417 0)
(1.00077 0.00355931 0)
(1.00131 0.0034129 0)
(1.00083 0.00397364 0)
(1.0009 0.00448346 0)
(1.0018 0.0043776 0)
(1.00238 0.0042306 0)
(1.00008 0.000237134 0)
(1.0004 -0.000462048 0)
(0.999582 -0.000871755 0)
(0.999092 -1.54015e-05 0)
(1.00012 0.000750426 0)
(1.00152 0.000101667 0)
(1.0015 -0.000975538 0)
(1.0006 -0.00167677 0)
(0.999077 -0.00155256 0)
(0.998067 -0.000198193 0)
(0.998284 0.000888897 0)
(0.998704 0.00147015 0)
(0.998592 0.00258101 0)
(0.999334 0.00350304 0)
(1.00073 0.00349949 0)
(1.00137 0.00335282 0)
(1.00102 0.00379573 0)
(1.00099 0.0043438 0)
(1.00175 0.00435972 0)
(1.00237 0.00421173 0)
(1.00006 0.000204378 0)
(1.00036 -0.000438777 0)
(0.999627 -0.000807822 0)
(0.999208 1.89088e-05 0)
(1.00013 0.000674537 0)
(1.00141 7.20741e-05 0)
(1.00137 -0.000872428 0)
(1.00057 -0.00144157 0)
(0.999241 -0.00131189 0)
(0.998338 -0.000109516 0)
(0.998491 0.000939414 0)
(0.99892 0.00149595 0)
(0.998872 0.00244321 0)
(0.99948 0.00331239 0)
(1.00072 0.00341931 0)
(1.00142 0.0033007 0)
(1.00121 0.00363858 0)
(1.00112 0.00418207 0)
(1.00173 0.00430602 0)
(1.00235 0.00418624 0)
(1.00005 0.000170979 0)
(1.00033 -0.000405662 0)
(0.999677 -0.000756091 0)
(0.999324 4.20656e-05 0)
(1.00014 0.000616836 0)
(1.0013 5.58733e-05 0)
(1.00127 -0.000768024 0)
(1.00055 -0.00121519 0)
(0.999399 -0.0010804 0)
(0.998602 -2.47173e-05 0)
(0.998704 0.000969486 0)
(0.999128 0.0015089 0)
(0.999137 0.00232903 0)
(0.99964 0.00313527 0)
(1.00073 0.00332122 0)
(1.00146 0.00324975 0)
(1.00139 0.00350282 0)
(1.00128 0.0040083 0)
(1.00174 0.00421894 0)
(1.00233 0.00414562 0)
(1.00003 0.000140559 0)
(1.00029 -0.00036651 0)
(0.999729 -0.000709161 0)
(0.999438 4.84285e-05 0)
(1.00016 0.000575927 0)
(1.0012 6.26781e-05 0)
(1.00118 -0.0006623 0)
(1.00055 -0.00100512 0)
(0.99955 -0.000855452 0)
(0.998854 6.21055e-05 0)
(0.998916 0.000991292 0)
(0.999328 0.00151083 0)
(0.999391 0.00222759 0)
(0.999812 0.00297727 0)
(1.00077 0.00321881 0)
(1.0015 0.00319796 0)
(1.00155 0.00339312 0)
(1.00145 0.00383691 0)
(1.0018 0.00410604 0)
(1.00231 0.00408586 0)
(1.00002 0.000112927 0)
(1.00026 -0.000325632 0)
(0.99978 -0.0006632 0)
(0.999552 4.76635e-05 0)
(1.00017 0.000545461 0)
(1.00111 8.53447e-05 0)
(1.00111 -0.000560308 0)
(1.00056 -0.000816559 0)
(0.999695 -0.000646931 0)
(0.999095 0.000153671 0)
(0.999129 0.00101266 0)
(0.999522 0.00151706 0)
(0.999635 0.00214103 0)
(0.999995 0.00283273 0)
(1.00083 0.00311662 0)
(1.00155 0.00313759 0)
(1.0017 0.0032975 0)
(1.00163 0.0036733 0)
(1.00188 0.00396982 0)
(1.00232 0.0040029 0)
(1.00001 8.88251e-05 0)
(1.00023 -0.000281977 0)
(0.99983 -0.000609617 0)
(0.999665 3.7713e-05 0)
(1.00019 0.000516862 0)
(1.00103 0.000116496 0)
(1.00105 -0.000456135 0)
(1.00058 -0.000645134 0)
(0.999837 -0.000453615 0)
(0.999324 0.000251761 0)
(0.99934 0.00103032 0)
(0.999707 0.0015185 0)
(0.999865 0.00206386 0)
(1.00018 0.00269049 0)
(1.00091 0.00300525 0)
(1.0016 0.00306674 0)
(1.00183 0.00320733 0)
(1.00181 0.00352643 0)
(1.00199 0.0038255 0)
(1.00234 0.00390485 0)
(1 6.87014e-05 0)
(1.0002 -0.000235859 0)
(0.999877 -0.000543147 0)
(0.999775 1.97815e-05 0)
(1.00022 0.000482736 0)
(1.00096 0.00015632 0)
(1.001 -0.000350964 0)
(1.00061 -0.0004909 0)
(0.999975 -0.000280077 0)
(0.99954 0.000348528 0)
(0.999545 0.00104889 0)
(0.999888 0.00151391 0)
(1.00008 0.00199997 0)
(1.00037 0.0025651 0)
(1.00101 0.00289235 0)
(1.00166 0.00299111 0)
(1.00195 0.00312052 0)
(1.00198 0.00339006 0)
(1.00212 0.00367614 0)
(1.00238 0.00378838 0)
(0.999995 5.28431e-05 0)
(1.00018 -0.000188163 0)
(0.999919 -0.000467315 0)
(0.999879 1.69224e-06 0)
(1.00025 0.000440203 0)
(1.0009 0.00019881 0)
(1.00096 -0.000244003 0)
(1.00064 -0.000348308 0)
(1.00011 -0.000125556 0)
(0.999745 0.000439948 0)
(0.999742 0.00107631 0)
(1.00006 0.00151234 0)
(1.00029 0.00194071 0)
(1.00056 0.00245231 0)
(1.00112 0.00278128 0)
(1.00173 0.00290645 0)
(1.00206 0.00303389 0)
(1.00214 0.00325832 0)
(1.00225 0.00352501 0)
(1.00245 0.00366012 0)
(0.999987 4.22376e-05 0)
(1.00016 -0.000144476 0)
(0.999955 -0.000385884 0)
(0.999975 -9.54213e-06 0)
(1.00029 0.000395046 0)
(1.00085 0.00024012 0)
(1.00092 -0.000133623 0)
(1.00068 -0.000213271 0)
(1.00024 1.09932e-05 0)
(0.999939 0.000519745 0)
(0.999933 0.00110136 0)
(1.00023 0.00151708 0)
(1.00048 0.00188812 0)
(1.00075 0.00234211 0)
(1.00124 0.00267329 0)
(1.00181 0.00281635 0)
(1.00217 0.00294746 0)
(1.00229 0.00313825 0)
(1.00239 0.00337749 0)
(1.00252 0.00352675 0)
(0.999981 3.60728e-05 0)
(1.00014 -0.000105979 0)
(0.999985 -0.000303864 0)
(1.00006 -1.07089e-05 0)
(1.00033 0.000349642 0)
(1.00081 0.000278203 0)
(1.00089 -2.44572e-05 0)
(1.00072 -8.50853e-05 0)
(1.00037 0.000129694 0)
(1.00012 0.000591603 0)
(1.00012 0.00111956 0)
(1.00038 0.00152005 0)
(1.00065 0.00185247 0)
(1.00093 0.00224223 0)
(1.00137 0.00256523 0)
(1.00189 0.00272311 0)
(1.00227 0.00285333 0)
(1.00242 0.00302401 0)
(1.00253 0.00323181 0)
(1.00261 0.00338278 0)
(0.999975 3.41813e-05 0)
(1.00013 -7.24366e-05 0)
(1.00001 -0.000226284 0)
(1.00013 1.45672e-06 0)
(1.00038 0.000309569 0)
(1.00079 0.000308459 0)
(1.00087 8.15438e-05 0)
(1.00076 3.84995e-05 0)
(1.00049 0.000237657 0)
(1.0003 0.00065518 0)
(1.0003 0.00113392 0)
(1.00053 0.00151267 0)
(1.00081 0.00182217 0)
(1.00109 0.00216088 0)
(1.0015 0.00245946 0)
(1.00198 0.00262914 0)
(1.00236 0.00275538 0)
(1.00255 0.00290983 0)
(1.00266 0.00309465 0)
(1.00271 0.00323234 0)
(0.99997 3.54112e-05 0)
(1.00012 -4.29234e-05 0)
(1.00004 -0.000155301 0)
(1.0002 2.7711e-05 0)
(1.00043 0.000280958 0)
(1.00078 0.000331458 0)
(1.00086 0.000181922 0)
(1.0008 0.000158463 0)
(1.00061 0.000337822 0)
(1.00046 0.000709706 0)
(1.00047 0.00114641 0)
(1.00068 0.00150411 0)
(1.00096 0.0017875 0)
(1.00125 0.0020888 0)
(1.00163 0.00236134 0)
(1.00207 0.00253223 0)
(1.00246 0.00265905 0)
(1.00266 0.00279358 0)
(1.00278 0.00296495 0)
(1.00281 0.00308379 0)
(0.999965 3.90633e-05 0)
(1.00012 -1.54515e-05 0)
(1.00006 -9.19571e-05 0)
(1.00025 6.38602e-05 0)
(1.00047 0.000264958 0)
(1.00078 0.000350271 0)
(1.00086 0.000272378 0)
(1.00084 0.000274839 0)
(1.00071 0.000433447 0)
(1.00061 0.000759468 0)
(1.00063 0.00115192 0)
(1.00082 0.00149558 0)
(1.0011 0.00175532 0)
(1.00139 0.00201606 0)
(1.00176 0.00226965 0)
(1.00217 0.00243429 0)
(1.00255 0.0025621 0)
(1.00277 0.00267826 0)
(1.00289 0.00283417 0)
(1.00291 0.00294123 0)
(0.999961 4.44348e-05 0)
(1.00012 1.13199e-05 0)
(1.00008 -3.64294e-05 0)
(1.0003 0.000105152 0)
(1.00052 0.000264984 0)
(1.00079 0.000367977 0)
(1.00086 0.000349874 0)
(1.00088 0.000382372 0)
(1.0008 0.000526668 0)
(1.00075 0.000810348 0)
(1.00079 0.00115298 0)
(1.00096 0.00147614 0)
(1.00123 0.00172761 0)
(1.00153 0.00194975 0)
(1.00188 0.00217836 0)
(1.00226 0.00233898 0)
(1.00263 0.00246143 0)
(1.00287 0.0025654 0)
(1.00299 0.00270119 0)
(1.003 0.00280179 0)
(0.999958 5.04434e-05 0)
(1.00012 3.89756e-05 0)
(1.0001 1.15951e-05 0)
(1.00034 0.000149362 0)
(1.00055 0.000278809 0)
(1.00081 0.000387821 0)
(1.00088 0.000416009 0)
(1.00092 0.000478774 0)
(1.00089 0.00061367 0)
(1.00087 0.000861294 0)
(1.00093 0.00115948 0)
(1.00109 0.00144805 0)
(1.00135 0.00169139 0)
(1.00164 0.0018936 0)
(1.00199 0.00208846 0)
(1.00235 0.0022422 0)
(1.00271 0.00236038 0)
(1.00296 0.00245222 0)
(1.00309 0.00257194 0)
(1.00308 0.00266243 0)
(0.999955 5.69051e-05 0)
(1.00012 6.71342e-05 0)
(1.00012 5.48803e-05 0)
(1.00037 0.000192384 0)
(1.00059 0.000304113 0)
(1.00084 0.000413688 0)
(1.00091 0.00047189 0)
(1.00096 0.000562809 0)
(1.00097 0.000693039 0)
(1.00098 0.000908136 0)
(1.00106 0.0011709 0)
(1.00122 0.00142705 0)