/*--------------------------------*- C++ -*----------------------------------*\
| =========                 |                                                 |
| \\      /  F ield         | OpenFOAM: The Open Source CFD Toolbox           |
|  \\    /   O peration     | Version:  3.0.1                                 |
|   \\  /    A nd           | Web:      www.OpenFOAM.org                      |
|    \\/     M anipulation  |                                                 |
\*---------------------------------------------------------------------------*/
FoamFile
{
    version     2.0;
    format      ascii;
    class       volScalarField;
    location    "1.4";
    object      p;
}
// * * * * * * * * * * * * * * * * * * * * * * * * * * * * * * * * * * * * * //

dimensions      [0 2 -2 0 0 0 0];

internalField   nonuniform List<scalar> 
9600
(
-7.34548e-11
0.0019928
0.000861558
0.00141351
0.00224509
0.00274458
0.00188911
0.00195756
0.00194614
0.0023223
0.00231406
0.00386567
0.00424307
0.00501911
0.00650249
0.00747872
0.00913371
0.00987603
0.0125094
0.0171165
1.47609e-07
0.00199038
0.000866153
0.00142012
0.00223874
0.00273332
0.00190167
0.0019563
0.00195114
0.00232763
0.00231446
0.00386424
0.00424521
0.00501178
0.00650065
0.00743138
0.00914478
0.00980927
0.0125791
0.0166558
5.57215e-07
0.00198798
0.000872995
0.00142677
0.00222931
0.00272005
0.00190971
0.00195713
0.00196102
0.00233093
0.00231617
0.00385814
0.00424808
0.00499905
0.0064901
0.00738962
0.00914692
0.00974328
0.0126005
0.0160786
1.8228e-06
0.00198638
0.000880914
0.0014315
0.00221928
0.0027089
0.00191516
0.00196133
0.00197548
0.00233157
0.00232001
0.00384662
0.00425222
0.00498382
0.0064759
0.00734737
0.00914145
0.00968244
0.0125641
0.0155843
4.22573e-06
0.00198528
0.000890498
0.00143514
0.00220902
0.00269903
0.00191807
0.00196797
0.00199412
0.00233021
0.00232538
0.0038319
0.00425819
0.00496617
0.00646141
0.00730098
0.00913759
0.00961624
0.0124986
0.0151516
7.75364e-06
0.0019845
0.000902239
0.00143776
0.00219849
0.00268956
0.00191828
0.00197603
0.00201604
0.00232747
0.00233199
0.00381662
0.00426545
0.00494636
0.00644639
0.00725404
0.00913117
0.00954502
0.0124068
0.0147486
1.22401e-05
0.00198386
0.000916055
0.00143954
0.00218815
0.00268016
0.00191669
0.00198457
0.00204043
0.00232405
0.00233984
0.00380243
0.00427386
0.00492497
0.00643079
0.00720593
0.00911758
0.00947352
0.0122846
0.0143657
1.74443e-05
0.00198319
0.000931692
0.00144107
0.00217835
0.0026706
0.00191441
0.00199298
0.00206686
0.00232032
0.00234894
0.00379015
0.00428367
0.00490247
0.0064141
0.00715595
0.00909542
0.00940294
0.0121293
0.0140009
2.31598e-05
0.00198242
0.000948922
0.00144281
0.00216909
0.00266077
0.00191225
0.00200097
0.00209506
0.00231635
0.00235924
0.00377996
0.00429492
0.00487906
0.00639547
0.00710469
0.00906314
0.00933299
0.0119414
0.0136474
2.92805e-05
0.00198156
0.000967503
0.00144489
0.00216019
0.00265058
0.00191072
0.00200839
0.00212483
0.00231217
0.00237055
0.00377162
0.00430738
0.00485488
0.00637426
0.0070532
0.00901865
0.00926356
0.0117223
0.0133032
3.5786e-05
0.0019806
0.000987187
0.00144728
0.00215148
0.0026399
0.0019101
0.0020151
0.00215597
0.00230781
0.00238251
0.00376474
0.00432058
0.00483001
0.00634981
0.00700251
0.00896017
0.00919448
0.0114745
0.0129628
4.2699e-05
0.00197953
0.00100778
0.00144991
0.00214283
0.00262854
0.00191054
0.00202098
0.00218829
0.00230337
0.00239474
0.00375891
0.00433386
0.00480464
0.00632128
0.00695327
0.00888659
0.00912497
0.0112023
0.0126201
5.00618e-05
0.00197829
0.00102916
0.00145274
0.00213418
0.0026163
0.00191215
0.00202595
0.00222164
0.00229896
0.00240687
0.00375376
0.00434644
0.00477913
0.00628781
0.00690584
0.00879769
0.00905455
0.0109109
0.0122708
5.79275e-05
0.00197682
0.00105125
0.0014557
0.00212552
0.00260304
0.001915
0.00202992
0.00225584
0.00229468
0.00241841
0.00374924
0.00435756
0.00475371
0.00624873
0.00686018
0.00869368
0.00897486
0.010606
0.0119123
6.63523e-05
0.00197507
0.00107405
0.00145876
0.00211694
0.00258865
0.00191917
0.00203289
0.00229069
0.00229074
0.0024289
0.00374546
0.00436651
0.00472848
0.00620353
0.00681568
0.00857518
0.00888478
0.0102936
0.0115442
7.53966e-05
0.00197296
0.00109755
0.00146185
0.0021085
0.002573
0.00192471
0.00203489
0.00232592
0.00228742
0.00243788
0.00374262
0.00437263
0.00470353
0.00615193
0.00677092
0.00844381
0.0087815
0.00997772
0.0111672
8.51282e-05
0.00197042
0.00112177
0.00146491
0.00210032
0.00255599
0.00193163
0.00203597
0.00236122
0.00228505
0.0024448
0.00374099
0.00437548
0.00467875
0.00609418
0.00672388
0.00830136
0.00866292
0.00966079
0.0107823
9.56221e-05
0.00196739
0.00114675
0.0014679
0.00209249
0.00253756
0.00193991
0.00203626
0.00239618
0.00228406
0.0024491
0.00374072
0.00437491
0.00465365
0.00603088
0.00667217
0.00814905
0.00852849
0.00934421
0.010391
0.00010696
0.00196376
0.0011725
0.00147072
0.0020851
0.00251769
0.00194948
0.00203596
0.00243031
0.00228494
0.00245036
0.00374177
0.00437107
0.00462724
0.00596282
0.00661359
0.0079878
0.00837926
0.00902845
0.00999465
0.000119231
0.00195943
0.00119904
0.00147333
0.00207823
0.00249637
0.00196021
0.00203532
0.00246308
0.00228809
0.00244828
0.00374388
0.00436434
0.00459826
0.00589078
0.00654695
0.00781784
0.00821653
0.00871401
0.00959453
0.000132531
0.00195429
0.00122639
0.00147568
0.00207193
0.00247366
0.00197193
0.00203468
0.00249394
0.0022938
0.00244275
0.00374656
0.00435538
0.00456532
0.0058152
0.00647188
0.0076386
0.00804153
0.00840245
0.00919174
0.000146957
0.00194824
0.00125453
0.00147772
0.00206622
0.00244966
0.00198438
0.00203443
0.00252235
0.00230231
0.00243374
0.003749
0.00434507
0.00452708
0.00573592
0.0063888
0.00744914
0.00785514
0.0080961
0.00878722
0.000162612
0.00194117
0.00128345
0.00147946
0.00206109
0.00242456
0.00199725
0.00203499
0.00254786
0.00231372
0.00242159
0.00374999
0.00433429
0.00448253
0.00565204
0.00629891
0.00724916
0.00765693
0.00779698
0.00838266
0.000179603
0.00193297
0.00131309
0.00148091
0.00205649
0.0023986
0.00201016
0.00203669
0.00257011
0.00232787
0.00240684
0.00374832
0.0043237
0.00443108
0.00556216
0.00620327
0.00703927
0.00744603
0.00750632
0.0079805
0.000198035
0.00192356
0.00134336
0.00148213
0.00205233
0.00237208
0.00202275
0.00203974
0.00258895
0.0023444
0.00239006
0.00374284
0.00431361
0.00437261
0.00546464
0.00610233
0.00682105
0.00722189
0.00722466
0.00758336
0.000218006
0.00191287
0.00137414
0.0014832
0.00204847
0.00234535
0.00203469
0.00204429
0.00260433
0.00236284
0.00237179
0.00373231
0.00430407
0.00430755
0.00535761
0.00599644
0.00659687
0.00698376
0.00695217
0.00719456
0.000239612
0.00190089
0.00140524
0.00148424
0.00204479
0.00231871
0.0020457
0.00205042
0.00261624
0.00238263
0.00235255
0.00371565
0.00429489
0.00423666
0.0052392
0.00588583
0.00636958
0.00673059
0.00668825
0.00681935
0.00026294
0.00188761
0.00143641
0.0014854
0.00204119
0.00229244
0.0020556
0.00205805
0.00262471
0.00240325
0.00233281
0.00369188
0.00428546
0.00416085
0.00510769
0.00577029
0.00614289
0.00646197
0.00643009
0.00646422
0.000288047
0.00187309
0.00146743
0.00148674
0.00203761
0.00226687
0.0020643
0.00206699
0.0026297
0.00242423
0.00231294
0.00366001
0.00427477
0.00408135
0.00496195
0.00564859
0.00592109
0.00617937
0.00617182
0.00613445
0.000314993
0.00185735
0.00149802
0.00148829
0.00203396
0.00224221
0.00207178
0.0020772
0.00263114
0.00244495
0.00229321
0.00361906
0.00426136
0.00399995
0.00480196
0.00551841
0.00570779
0.00588714
0.00590603
0.00583078
0.000343807
0.0018407
0.00152791
0.0014901
0.00203022
0.00221854
0.00207803
0.00208875
0.00262899
0.00246464
0.00227408
0.00356807
0.00424321
0.00391842
0.00462871
0.00537714
0.00550465
0.00559176
0.00562707
0.00554783
0.000374465
0.00182351
0.00155691
0.00149201
0.00202655
0.0021961
0.00208274
0.00210166
0.00262322
0.00248229
0.00225611
0.0035066
0.00421781
0.00383844
0.00444441
0.00522246
0.00531074
0.00529944
0.00533408
0.00527593
0.000406944
0.0018059
0.00158487
0.00149381
0.0020231
0.00217518
0.00208548
0.00211615
0.00261406
0.00249638
0.00223951
0.00343457
0.00418243
0.00376156
0.00425259
0.00505291
0.00512385
0.00501451
0.00503016
0.00500502
0.000441199
0.00178811
0.00161178
0.00149511
0.00201979
0.00215618
0.0020858
0.00213239
0.00260197
0.00250506
0.00222389
0.00335269
0.00413484
0.00368844
0.00405722
0.00486827
0.0049416
0.0047394
0.00471937
0.00472856
0.000477153
0.0017703
0.00163785
0.00149541
0.00201632
0.00213982
0.00208307
0.00214999
0.00258773
0.00250664
0.00220832
0.0032628
0.00407415
0.0036186
0.00386157
0.00466909
0.00476191
0.00447542
0.00440492
0.00444443
0.000514774
0.00175261
0.00166335
0.0014943
0.00201208
0.00212704
0.00207676
0.00216783
0.00257284
0.00249992
0.002191
0.00316728
0.00400034
0.00355051
0.00366767
0.00445612
0.00458317
0.00422441
0.0040894
0.004152
0.000554066
0.0017351
0.00168864
0.0014916
0.00200609
0.00211869
0.00206676
0.00218434
0.00255879
0.00248422
0.00216972
0.00306824
0.00391449
0.0034827
0.00347713
0.0042297
0.00440286
0.00398874
0.00377617
0.00385026
0.000595024
0.00171775
0.0017141
0.00148764
0.00199678
0.00211513
0.00205377
0.00219725
0.00254621
0.00246035
0.00214246
0.00296676
0.00381877
0.00341424
0.00329125
0.00399004
0.00421723
0.00377029
0.00347061
0.00353874
0.000637699
0.00170043
0.0017399
0.00148329
0.00198242
0.00211623
0.00203911
0.00220367
0.00253513
0.00243096
0.00210778
0.00286264
0.00371513
0.00334432
0.003111
0.0037383
0.00402223
0.00356899
0.00317933
0.00321938
0.000682168
0.00168305
0.00176612
0.00147963
0.00196145
0.00212126
0.00202362
0.00220092
0.00252445
0.00239949
0.00206575
0.00275499
0.00360409
0.0032726
0.00293783
0.00347679
0.00381384
0.00338163
0.00290812
0.00289754
0.000728484
0.00166548
0.00179271
0.00147819
0.00193246
0.00212817
0.00200587
0.00218749
0.00251217
0.00236918
0.00201781
0.00264146
0.003485
0.00319892
0.00277338
0.00320862
0.00358924
0.00320298
0.00266047
0.0025805
0.000776742
0.0016476
0.00181929
0.00148078
0.00189476
0.002134
0.00199503
0.00216338
0.00249576
0.00234222
0.00196672
0.00252041
0.00335599
0.00312278
0.00261972
0.00293772
0.00334716
0.00302724
0.00243745
0.0022754
0.000827064
0.00162941
0.00184513
0.00148906
0.00184842
0.00213513
0.00198978
0.00212955
0.0024721
0.00231973
0.00191655
0.00239212
0.00321423
0.0030421
0.00247912
0.00266899
0.0030874
0.00284872
0.00223876
0.00198937
0.000879472
0.00161109
0.00186912
0.00150439
0.00179483
0.00212774
0.00198862
0.00208776
0.00243872
0.00230161
0.00186369
0.00225771
0.00305765
0.00295353
0.00235211
0.00240825
0.00281135
0.00266135
0.00206216
0.00173015
0.000933904
0.00159296
0.00188976
0.00152773
0.00173672
0.00210798
0.00199037
0.00204076
0.00239364
0.00228578
0.00182387
0.00212031
0.00288649
0.00285303
0.0022363
0.00216138
0.00252353
0.00245927
0.00190137
0.00150355
0.000990258
0.00157556
0.00190518
0.00155932
0.00167767
0.00207255
0.00199495
0.00199307
0.00233571
0.00226914
0.00179332
0.00198575
0.0027029
0.00273692
0.00212772
0.0019323
0.00223112
0.00223966
0.00174669
0.00130957
0.00104836
0.00155955
0.00191366
0.00159842
0.00162137
0.00201978
0.00199488
0.00194999
0.00226555
0.00224357
0.0017711
0.00185988
0.00251003
0.00260315
0.00202194
0.00172213
0.00194086
0.00200365
0.00158899
0.00114191
0.00110789
0.00154568
0.00191398
0.00164288
0.00157191
0.00194989
0.00198736
0.00191446
0.00218673
0.00220391
0.00175356
0.00174598
0.00231304
0.00245224
0.00191438
0.00153015
0.00165742
0.00175436
0.00142315
0.000991659
0.00116836
0.00153486
0.00190546
0.00168899
0.0015326
0.00186574
0.00196722
0.00188672
0.00210554
0.00214835
0.00173306
0.00164365
0.00211813
0.00228698
0.00180143
0.00135459
0.00138449
0.00149475
0.0012473
0.000850333
0.00122916
0.00152804
0.00188796
0.00173218
0.00150649
0.00177255
0.00192993
0.00186524
0.00202783
0.00207797
0.00170304
0.00155121
0.0019296
0.00211087
0.00168132
0.00119351
0.00112627
0.00122777
0.00106016
0.000711672
0.00128953
0.00152602
0.00186199
0.00177368
0.00149485
0.00167733
0.00187308
0.00184504
0.00195734
0.00199576
0.00166008
0.00146484
0.00174898
0.00192769
0.00155346
0.00104449
0.000886926
0.00095805
0.000860126
0.000571927
0.00134847
0.00152938
0.00182917
0.0017982
0.00149724
0.00158667
0.00179683
0.00181957
0.00189472
0.00190938
0.00160428
0.00137923
0.00157642
0.00174084
0.00141818
0.000904793
0.000668808
0.000692261
0.00064653
0.000428263
0.00140491
0.00153839
0.00179216
0.00180816
0.00150964
0.00150525
0.00170364
0.0017753
0.00183932
0.00182618
0.00153791
0.00129037
0.00141055
0.00155223
0.00127598
0.000771764
0.000472218
0.000437678
0.000421646
0.000277729
0.00145793
0.00155288
0.00175363
0.00180218
0.00152823
0.00143923
0.00159933
0.00171169
0.0017847
0.00174899
0.00146648
0.00119862
0.00124873
0.00136276
0.00112724
0.000642665
0.000295992
0.000200678
0.000190567
0.000117127
0.00150671
0.00157195
0.0017163
0.00177985
0.00154051
0.00139008
0.0014933
0.00162743
0.00172212
0.00167673
0.00139537
0.00110612
0.0010905
0.00117214
0.000972167
0.000514824
0.000137195
-1.39772e-05
-3.90317e-05
-5.55434e-05
0.00155061
0.00159404
0.00168254
0.00174296
0.001545
0.00135797
0.00139351
0.00152517
0.0016442
0.00160654
0.00132698
0.00101586
0.000938235
0.000980702
0.000810033
0.000385965
-8.9881e-06
-0.000205034
-0.000257671
-0.000238751
0.0015892
0.00161707
0.00165393
0.00169529
0.00153771
0.00133418
0.00130459
0.00141245
0.00154846
0.00153087
0.00126111
0.000930729
0.000794173
0.00079173
0.000640537
0.000254366
-0.000146782
-0.000375928
-0.00045755
-0.000426315
0.00162237
0.00163873
0.00163093
0.00164201
0.00151618
0.00131362
0.00122915
0.00129797
0.00143608
0.0014424
0.0011953
0.000852378
0.000660927
0.000609214
0.000465436
0.00011826
-0.000278668
-0.000531997
-0.000636071
-0.000608464
0.00165024
0.00165712
0.00161299
0.0015877
0.00148034
0.00129053
0.00116683
0.00118859
0.00131091
0.00133845
0.00112361
0.000779711
0.000541346
0.000437064
0.000288655
-2.36371e-05
-0.000406524
-0.00067744
-0.000796266
-0.000776581
0.00167295
0.0016713
0.00159854
0.00153475
0.00143265
0.0012601
0.00111317
0.00108851
0.00118077
0.00122039
0.00104069
0.000709223
0.000435856
0.00028025
0.000115843
-0.000170466
-0.00053237
-0.000814274
-0.000943552
-0.000927714
0.0016907
0.00168072
0.00158527
0.00148503
0.0013765
0.00121977
0.00106247
0.000998219
0.00105322
0.00109125
0.000944584
0.000635396
0.000340995
0.00014169
-4.66726e-05
-0.000318025
-0.000657362
-0.000943037
-0.00108181
-0.00106453
0.00170371
0.00168499
0.00157098
0.00143848
0.00131548
0.00116907
0.00101021
0.00091648
0.00093225
0.000956666
0.000836442
0.000555075
0.000252918
1.94403e-05
-0.000193838
-0.000460306
-0.00077996
-0.00106339
-0.0012115
-0.00119142
0.00171188
0.00168392
0.0015542
0.00139444
0.00125238
0.00110884
0.000952813
0.000840109
0.000819249
0.000822988
0.000719169
0.000466914
0.000168214
-8.94408e-05
-0.000324419
-0.000591833
-0.000896405
-0.00117412
-0.00133048
-0.00131031
0.00171492
0.00167783
0.00153385
0.0013515
0.00118894
0.00104105
0.000888281
0.000764954
0.000713741
0.000694642
0.000597323
0.000371004
8.45437e-05
-0.000186457
-0.000438982
-0.00070948
-0.00100299
-0.00127297
-0.00143527
-0.00141856
0.00171263
0.00166681
0.0015093
0.00130786
0.00112567
0.000968393
0.000816488
0.000687429
0.000613901
0.000573423
0.00047692
0.000271076
1.23798e-07
-0.000273798
-0.000537755
-0.000811652
-0.00109671
-0.00135787
-0.00152319
-0.00151244
0.00170471
0.00165091
0.00148056
0.00126196
0.0010618
0.000892932
0.000738451
0.000605662
0.000516783
0.000458172
0.000361111
0.000172128
-8.31304e-05
-0.000353109
-0.0006204
-0.00089585
-0.00117493
-0.00142717
-0.00159272
-0.00158853
0.00169131
0.00162983
0.00144755
0.00121334
0.000996277
0.000814639
0.000655145
0.000519295
0.000420214
0.000347772
0.000249423
7.63669e-05
-0.000161298
-0.000423069
-0.000686782
-0.000958767
-0.001233
-0.00147764
-0.0016409
-0.00164261
0.00167219
0.00160359
0.00141006
0.00116152
0.000928365
0.000733091
0.000566893
0.00042781
0.000322435
0.000241333
0.000142616
-1.54957e-05
-0.00023234
-0.000480469
-0.000736009
-0.00099814
-0.0012644
-0.00150265
-0.00166223
-0.00166877
0.0016473
0.00157211
0.00136815
0.00110607
0.000857039
0.000647847
0.000474029
0.000330899
0.000221138
0.000136014
4.07549e-05
-0.0001018
-0.000295385
-0.000522247
-0.000763766
-0.00101062
-0.00126175
-0.00149145
-0.00164675
-0.00165757
0.00161655
0.00153531
0.00132183
0.00104693
0.000781757
0.000557439
0.000375457
0.000228391
0.000114903
2.81985e-05
-5.91121e-05
-0.000182392
-0.00034973
-0.00054724
-0.00076428
-0.000989179
-0.00121601
-0.00142871
-0.00157622
-0.00158982
0.00158029
0.00149352
0.00127093
0.000983274
0.00070247
0.000462104
0.000269424
0.00011787
1.30961e-06
-8.63009e-05
-0.000162998
-0.000260835
-0.000395005
-0.000553421
-0.00073051
-0.000922226
-0.00111424
-0.00129607
-0.00142532
-0.00143457
0.00153822
0.00144674
0.00121525
0.000914635
0.000618358
0.000361772
0.000156157
-3.05609e-06
-0.000123509
-0.000212738
-0.000281463
-0.000351422
-0.000440517
-0.000542614
-0.000654353
-0.000783867
-0.000924624
-0.00106502
-0.00117064
-0.00117194
0.00149388
0.00139462
0.00115226
0.000840538
0.000529768
0.000256174
3.52818e-05
-0.000136023
-0.000264015
-0.000354983
-0.000419771
-0.000473014
-0.000522966
-0.000556874
-0.000559221
-0.00054034
-0.000522436
-0.000528483
-0.00057434
-0.00062272
0.00144861
0.00133681
0.00108152
0.000760329
0.00043688
0.00014577
-9.26274e-05
-0.000282008
-0.000424446
-0.000522421
-0.000582154
-0.000623312
-0.000656209
-0.00067814
-0.000664963
-0.000565829
-0.000301105
0.000173912
0.000748919
0.00122037
0.00139651
0.00127678
0.00100898
0.000674598
0.000337195
3.07135e-05
-0.000226042
-0.00043622
-0.000604291
-0.000723432
-0.000787608
-0.000807039
-0.00076748
-0.00060974
-0.000254601
0.000305655
0.000936255
0.00147797
0.00181466
0.00188132
0.00133681
0.00121648
0.000939664
0.000586747
0.00022585
-0.000101964
-0.000374954
-0.000592642
-0.00075964
-0.000876531
-0.000921336
-0.000828216
-0.000530063
-8.08915e-05
0.000403166
0.000837519
0.00119046
0.00146084
0.00163758
0.00166008
0.00127281
0.0011502
0.000874883
0.000516323
0.000130711
-0.000252635
-0.000597587
-0.000876919
-0.0010289
-0.000978364
-0.000718519
-0.000342775
5.75542e-05
0.000435256
0.000794937
0.00114093
0.00146289
0.00172949
0.00188706
0.00186607
0.00121118
0.00107305
0.000784422
0.00042436
6.25999e-05
-0.000259468
-0.000506709
-0.000674062
-0.000760345
-0.000774773
-0.000750886
-0.000706254
-0.000600833
-0.000371231
4.64183e-05
0.000660257
0.00133725
0.00190391
0.00223085
0.00225119
0.00115899
0.00102743
0.00073762
0.000353663
-6.95088e-05
-0.000476361
-0.000796603
-0.000963654
-0.000929672
-0.000730645
-0.000433059
-9.3459e-05
0.000258201
0.000610854
0.000951916
0.00127026
0.00154542
0.00175148
0.00185351
0.00178623
0.00109318
0.000946638
0.000662308
0.000303507
-7.12866e-05
-0.000422808
-0.000710912
-0.000906739
-0.000955562
-0.000818557
-0.000530015
-0.000179993
0.000149945
0.000441743
0.000712409
0.000977975
0.00123526
0.0014555
0.00158997
0.00156415
0.0222369
0.0151985
0.00615181
-0.00045003
-0.00287685
-0.00254137
-0.00163172
-0.0012135
-0.00133362
-0.00156077
-0.00165931
-0.00172022
-0.00182261
-0.00192103
-0.00201174
-0.00217413
-0.00237959
-0.00249286
-0.00254003
-0.00263369
-0.00276115
-0.00289582
-0.00304145
-0.00315966
-0.00325833
-0.00339361
-0.00355808
-0.00371236
-0.00384314
-0.00396602
-0.00409866
-0.00423803
-0.00436204
-0.00447049
-0.00459233
-0.00473757
-0.00487724
-0.00500111
-0.00514439
-0.00531169
-0.00547323
-0.00561925
-0.00577403
-0.00594247
-0.00610416
-0.00625195
-0.00640468
-0.00656889
-0.00672633
-0.00687518
-0.00702576
-0.00719186
-0.00736884
-0.00755394
-0.00774686
-0.00793363
-0.00812349
-0.00830997
-0.00848697
-0.00866438
-0.00885768
-0.00905713
-0.00925347
-0.00946228
-0.00967508
-0.00988064
-0.0100802
-0.0102884
-0.0105054
-0.0107196
-0.0109382
-0.0111584
-0.0113875
-0.01161
-0.0118349
-0.0120739
-0.0123146
-0.0125591
-0.012792
-0.0130424
-0.013309
-0.0135577
-0.0138348
-0.0141057
-0.0143568
-0.0146484
-0.0149313
-0.0151878
-0.0154892
-0.0157796
-0.0160555
-0.0163483
-0.0166363
-0.0169386
-0.017242
-0.0175098
-0.017816
-0.0181341
-0.0183671
-0.0186247
0.0211006
0.0150302
0.00623996
-0.000316255
-0.00279127
-0.00249744
-0.00160351
-0.00119403
-0.00132028
-0.00155107
-0.00165143
-0.00171346
-0.00181679
-0.00191584
-0.00200688
-0.00216969
-0.00237582
-0.00248955
-0.00253688
-0.00263077
-0.00275851
-0.00289341
-0.00303931
-0.00315775
-0.0032565
-0.00339188
-0.00355651
-0.00371092
-0.0038418
-0.00396474
-0.00409743
-0.00423689
-0.00436098
-0.00446947
-0.00459134
-0.00473665
-0.00487638
-0.00500028
-0.00514358
-0.00531094
-0.00547253
-0.00561858
-0.00577337
-0.00594186
-0.00610359
-0.0062514
-0.00640414
-0.00656838
-0.00672586
-0.00687473
-0.00702532
-0.00719144
-0.00736843
-0.00755354
-0.00774649
-0.00793328
-0.00812315
-0.00830966
-0.00848667
-0.00866408
-0.00885739
-0.00905686
-0.00925321
-0.00946202
-0.00967483
-0.00988041
-0.01008
-0.0102882
-0.0105052
-0.0107194
-0.010938
-0.0111582
-0.0113873
-0.0116098
-0.0118347
-0.0120737
-0.0123145
-0.0125589
-0.0127919
-0.0130422
-0.0133089
-0.0135575
-0.0138347
-0.0141056
-0.0143567
-0.0146483
-0.0149312
-0.0151877
-0.0154891
-0.0157795
-0.0160554
-0.0163483
-0.0166362
-0.0169385
-0.0172419
-0.0175098
-0.0178159
-0.0181341
-0.0183671
-0.0186247
0.0201445
0.0149191
0.00645102
-5.438e-05
-0.0026452
-0.00244209
-0.00157603
-0.00117256
-0.00130262
-0.00153715
-0.00164059
-0.00170506
-0.00181028
-0.00191058
-0.00200224
-0.00216546
-0.00237212
-0.00248625
-0.00253382
-0.00262803
-0.00275603
-0.00289108
-0.00303725
-0.00315592
-0.00325479
-0.0033903
-0.0035551
-0.00370963
-0.0038406
-0.0039636
-0.00409635
-0.00423589
-0.00436004
-0.00446856
-0.00459046
-0.00473583
-0.00487563
-0.00499954
-0.00514286
-0.00531028
-0.00547192
-0.00561799
-0.0057728
-0.00594132
-0.00610309
-0.00625092
-0.00640368
-0.00656795
-0.00672545
-0.00687433
-0.00702493
-0.00719106
-0.00736807
-0.0075532
-0.00774617
-0.00793297
-0.00812286
-0.00830939
-0.00848641
-0.00866382
-0.00885714
-0.00905663
-0.00925298
-0.0094618
-0.00967463
-0.00988021
-0.0100798
-0.010288
-0.010505
-0.0107192
-0.0109378
-0.011158
-0.0113872
-0.0116097
-0.0118346
-0.0120736
-0.0123143
-0.0125588
-0.0127917
-0.0130421
-0.0133088
-0.0135574
-0.0138346
-0.0141055
-0.0143566
-0.0146482
-0.0149312
-0.0151876
-0.015489
-0.0157794
-0.0160554
-0.0163482
-0.0166362
-0.0169385
-0.0172419
-0.0175097
-0.0178159
-0.0181341
-0.0183671
-0.0186247
0.0192761
0.0147949
0.00670458
0.000266922
-0.00245339
-0.00236873
-0.0015389
-0.0011417
-0.00127571
-0.00151529
-0.00162382
-0.00169242
-0.0018007
-0.00190338
-0.00199656
-0.00216031
-0.00236719
-0.0024818
-0.00253008
-0.00262489
-0.00275308
-0.00288815
-0.00303455
-0.00315358
-0.00325273
-0.00338846
-0.00355342
-0.00370811
-0.00383925
-0.00396237
-0.00409519
-0.00423479
-0.00435902
-0.00446759
-0.00458953
-0.00473496
-0.00487481
-0.00499874
-0.0051421
-0.00530958
-0.00547127
-0.00561736
-0.0057722
-0.00594076
-0.00610256
-0.00625041
-0.00640319
-0.0065675
-0.00672502
-0.00687392
-0.00702452
-0.00719067
-0.0073677
-0.00755284
-0.00774585
-0.00793266
-0.00812256
-0.00830911
-0.00848613
-0.00866355
-0.00885688
-0.00905639
-0.00925274
-0.00946158
-0.00967442
-0.00988001
-0.0100796
-0.0102878
-0.0105048
-0.010719
-0.0109377
-0.0111579
-0.011387
-0.0116095
-0.0118344
-0.0120734
-0.0123142
-0.0125587
-0.0127916
-0.013042
-0.0133086
-0.0135573
-0.0138344
-0.0141054
-0.0143565
-0.0146481
-0.0149311
-0.0151875
-0.015489
-0.0157794
-0.0160553
-0.0163481
-0.0166361
-0.0169384
-0.0172418
-0.0175097
-0.0178158
-0.018134
-0.0183671
-0.0186246
0.0184098
0.0146119
0.00695211
0.000601478
-0.00224597
-0.00228785
-0.00149767
-0.00110459
-0.00124043
-0.00148504
-0.00160015
-0.00167432
-0.00178664
-0.00189299
-0.00198895
-0.00215346
-0.0023601
-0.00247533
-0.00252511
-0.00262107
-0.00274945
-0.00288428
-0.00303074
-0.00315028
-0.00325001
-0.00338604
-0.00355109
-0.00370599
-0.00383748
-0.00396089
-0.0040938
-0.00423343
-0.00435778
-0.00446647
-0.00458845
-0.0047339
-0.0048738
-0.0049978
-0.00514122
-0.00530875
-0.00547049
-0.00561663
-0.00577152
-0.00594012
-0.00610194
-0.00624982
-0.00640263
-0.00656698
-0.00672452
-0.00687344
-0.00702406
-0.00719023
-0.00736728
-0.00755244
-0.00774547
-0.00793231
-0.00812223
-0.00830879
-0.00848583
-0.00866324
-0.00885659
-0.00905612
-0.00925248
-0.00946133
-0.00967419
-0.00987979
-0.0100794
-0.0102876
-0.0105046
-0.0107188
-0.0109375
-0.0111577
-0.0113868
-0.0116094
-0.0118342
-0.0120733
-0.0123141
-0.0125585
-0.0127915
-0.0130418
-0.0133085
-0.0135572
-0.0138343
-0.0141053
-0.0143564
-0.014648
-0.014931
-0.0151874
-0.0154889
-0.0157793
-0.0160552
-0.0163481
-0.016636
-0.0169384
-0.0172418
-0.0175096
-0.0178158
-0.018134
-0.0183671
-0.0186246
0.017544
0.0143691
0.00718919
0.000943349
-0.00202832
-0.00220302
-0.00145655
-0.00106574
-0.00120088
-0.00144983
-0.00157201
-0.00165222
-0.00176883
-0.00187953
-0.00197924
-0.00214461
-0.00235052
-0.00246655
-0.00251867
-0.00261639
-0.00274509
-0.00287944
-0.00302572
-0.00314592
-0.00324656
-0.00338293
-0.00354787
-0.00370293
-0.00383504
-0.00395897
-0.00409202
-0.00423167
-0.00435622
-0.00446519
-0.00458723
-0.0047326
-0.00487254
-0.00499667
-0.00514016
-0.00530769
-0.00546949
-0.00561576
-0.00577072
-0.00593933
-0.00610119
-0.00624914
-0.00640201
-0.00656637
-0.00672392
-0.00687287
-0.00702353
-0.00718972
-0.00736679
-0.00755196
-0.00774504
-0.0079319
-0.00812183
-0.00830842
-0.00848547
-0.00866289
-0.00885625
-0.00905581
-0.00925219
-0.00946105
-0.00967393
-0.00987954
-0.0100791
-0.0102874
-0.0105044
-0.0107186
-0.0109373
-0.0111575
-0.0113866
-0.0116092
-0.011834
-0.0120731
-0.0123139
-0.0125584
-0.0127913
-0.0130417
-0.0133084
-0.013557
-0.0138342
-0.0141052
-0.0143563
-0.0146479
-0.0149309
-0.0151873
-0.0154888
-0.0157792
-0.0160551
-0.016348
-0.016636
-0.0169383
-0.0172417
-0.0175096
-0.0178157
-0.018134
-0.0183671
-0.0186247
0.0166909
0.0140788
0.00741741
0.00129298
-0.0018
-0.00211397
-0.00141626
-0.00102675
-0.0011591
-0.00141187
-0.00154143
-0.00162794
-0.00174884
-0.00186405
-0.00196786
-0.00213405
-0.00233885
-0.00245578
-0.00251084
-0.00261081
-0.00273999
-0.00287375
-0.00301965
-0.00314067
-0.00324254
-0.00337922
-0.00354374
-0.00369883
-0.00383173
-0.00395646
-0.0040897
-0.00422933
-0.00435422
-0.0044637
-0.00458587
-0.00473105
-0.004871
-0.00499535
-0.0051389
-0.00530634
-0.00546819
-0.00561467
-0.00576974
-0.00593834
-0.00610023
-0.00624832
-0.00640129
-0.00656566
-0.0067232
-0.00687218
-0.0070229
-0.00718912
-0.0073662
-0.0075514
-0.00774453
-0.00793142
-0.00812137
-0.00830798
-0.00848504
-0.00866248
-0.00885586
-0.00905545
-0.00925185
-0.00946073
-0.00967362
-0.00987925
-0.0100788
-0.0102871
-0.0105041
-0.0107184
-0.010937
-0.0111573
-0.0113864
-0.011609
-0.0118338
-0.0120729
-0.0123137
-0.0125582
-0.0127911
-0.0130415
-0.0133082
-0.0135569
-0.013834
-0.014105
-0.0143561
-0.0146477
-0.0149308
-0.0151871
-0.0154886
-0.0157791
-0.016055
-0.0163479
-0.0166359
-0.0169382
-0.0172416
-0.0175095
-0.0178156
-0.018134
-0.0183671
-0.0186247
0.0158631
0.0137472
0.00763173
0.00164756
-0.00156095
-0.00201967
-0.0013766
-0.000988223
-0.00111575
-0.00137175
-0.00150907
-0.00160224
-0.00172755
-0.00184731
-0.00195532
-0.00212229
-0.00232577
-0.00244365
-0.00250196
-0.00260444
-0.00273424
-0.00286735
-0.00301283
-0.00313481
-0.00323817
-0.00337514
-0.00353892
-0.00369383
-0.0038276
-0.00395327
-0.00408673
-0.0042263
-0.00435168
-0.00446194
-0.00458433
-0.00472926
-0.00486922
-0.00499388
-0.00513747
-0.00530468
-0.00546655
-0.00561332
-0.00576854
-0.00593707
-0.00609901
-0.00624732
-0.00640046
-0.00656483
-0.00672235
-0.00687139
-0.00702218
-0.00718841
-0.00736548
-0.0075507
-0.0077439
-0.00793084
-0.00812081
-0.00830744
-0.00848452
-0.00866198
-0.00885537
-0.00905501
-0.00925144
-0.00946034
-0.00967324
-0.00987889
-0.0100785
-0.0102868
-0.0105038
-0.0107181
-0.0109368
-0.011157
-0.0113862
-0.0116087
-0.0118336
-0.0120727
-0.0123135
-0.012558
-0.0127909
-0.0130413
-0.013308
-0.0135567
-0.0138338
-0.0141048
-0.0143559
-0.0146476
-0.0149306
-0.015187
-0.0154885
-0.015779
-0.0160548
-0.0163478
-0.0166357
-0.0169381
-0.0172415
-0.0175094
-0.0178155
-0.0181339
-0.0183672
-0.0186248
0.0150704
0.0133761
0.00782319
0.00200346
-0.00131018
-0.00191806
-0.00133683
-0.000950541
-0.00107121
-0.00132957
-0.00147499
-0.00157534
-0.00170527
-0.00182963
-0.00194193
-0.00210975
-0.00231182
-0.00243059
-0.00249229
-0.00259744
-0.00272792
-0.00286042
-0.00300548
-0.00312856
-0.00323359
-0.00337084
-0.0035337
-0.00368823
-0.00382284
-0.00394951
-0.00408314
-0.0042226
-0.00434856
-0.00445982
-0.00458257
-0.00472721
-0.00486721
-0.00499232
-0.00513595
-0.00530277
-0.00546458
-0.0056117
-0.00576709
-0.00593549
-0.00609745
-0.00624608
-0.00639946
-0.00656385
-0.00672137
-0.00687052
-0.00702139
-0.00718761
-0.00736461
-0.00754983
-0.00774312
-0.00793013
-0.00812015
-0.0083068
-0.00848392
-0.0086614
-0.00885478
-0.00905446
-0.00925095
-0.00945988
-0.00967277
-0.00987846
-0.0100782
-0.0102865
-0.0105035
-0.0107177
-0.0109365
-0.0111567
-0.0113859
-0.0116085
-0.0118333
-0.0120724
-0.0123132
-0.0125578
-0.0127907
-0.0130411
-0.0133078
-0.0135564
-0.0138336
-0.0141046
-0.0143557
-0.0146473
-0.0149304
-0.0151868
-0.0154883
-0.0157788
-0.0160547
-0.0163476
-0.0166356
-0.0169379
-0.0172414
-0.0175093
-0.0178154
-0.0181338
-0.0183672
-0.0186248
0.0143205
0.0129681
0.00798403
0.00235842
-0.00104586
-0.00180678
-0.00129619
-0.00091433
-0.0010261
-0.00128549
-0.0014392
-0.00154725
-0.00168202
-0.00181109
-0.00192785
-0.00209662
-0.00229722
-0.00241682
-0.00248197
-0.00258991
-0.00272115
-0.00285305
-0.00299772
-0.00312199
-0.00322881
-0.00336638
-0.00352823
-0.00368227
-0.00381767
-0.00394531
-0.00407907
-0.00421835
-0.00434494
-0.00445736
-0.00458055
-0.0047249
-0.00486501
-0.00499069
-0.00513439
-0.00530071
-0.00546237
-0.00560987
-0.00576542
-0.00593361
-0.00609556
-0.00624454
-0.00639823
-0.00656267
-0.00672023
-0.00686957
-0.0070206
-0.00718679
-0.00736366
-0.00754881
-0.00774214
-0.00792926
-0.00811933
-0.00830604
-0.00848323
-0.00866074
-0.00885409
-0.00905378
-0.00925036
-0.0094593
-0.00967218
-0.00987793
-0.0100777
-0.0102861
-0.0105031