/*--------------------------------*- C++ -*----------------------------------*\
| =========                 |                                                 |
| \\      /  F ield         | OpenFOAM: The Open Source CFD Toolbox           |
|  \\    /   O peration     | Version:  3.0.1                                 |
|   \\  /    A nd           | Web:      www.OpenFOAM.org                      |
|    \\/     M anipulation  |                                                 |
\*---------------------------------------------------------------------------*/
FoamFile
{
    version     2.0;
    format      ascii;
    class       surfaceScalarField;
    location    "1.4";
    object      phi;
}
// * * * * * * * * * * * * * * * * * * * * * * * * * * * * * * * * * * * * * //

dimensions      [0 3 -1 0 0 0 0];

internalField   nonuniform List<scalar> 
19000
(
1.16668e-06
-3.13474e-07
1.15936e-06
1.55371e-07
1.19392e-06
-4.50743e-07
1.2157e-06
3.76167e-07
1.18809e-06
1.25761e-07
1.15027e-06
4.82346e-07
1.17511e-06
4.14394e-08
1.16698e-06
-4.90462e-07
1.18991e-06
-4.97036e-07
1.20005e-06
-1.17045e-07
1.19591e-06
-2.08238e-07
1.19606e-06
8.33639e-08
1.1917e-06
1.76043e-07
1.18011e-06
2.9184e-07
1.18027e-06
2.63141e-07
1.15987e-06
-2.30091e-08
1.16994e-06
1.92985e-07
1.1422e-06
-1.38516e-07
1.15453e-06
7.67916e-08
-1.21204e-07
1.10528e-06
1.22362e-06
-3.12829e-07
1.21813e-06
1.6086e-07
1.25417e-06
-4.86789e-07
1.27826e-06
3.5208e-07
1.24776e-06
1.56263e-07
1.21611e-06
5.13995e-07
1.23313e-06
2.44143e-08
1.22518e-06
-4.82507e-07
1.24762e-06
-5.1948e-07
1.26133e-06
-1.30755e-07
1.25491e-06
-2.01816e-07
1.25885e-06
7.94262e-08
1.24721e-06
1.8768e-07
1.24626e-06
2.92786e-07
1.23307e-06
2.76333e-07
1.22685e-06
-1.6786e-08
1.21758e-06
2.02249e-07
1.21367e-06
-1.34606e-07
1.1968e-06
9.36684e-08
-1.1563e-07
1.19122e-06
1.28188e-06
-3.11928e-07
1.28178e-06
1.60966e-07
1.31526e-06
-5.20276e-07
1.344e-06
3.23342e-07
1.31136e-06
1.88909e-07
1.28836e-06
5.36988e-07
1.29333e-06
1.94427e-08
1.28801e-06
-4.77186e-07
1.30463e-06
-5.36094e-07
1.32449e-06
-1.50617e-07
1.31511e-06
-1.92434e-07
1.3227e-06
7.18368e-08
1.307e-06
2.0338e-07
1.30969e-06
2.90091e-07
1.29502e-06
2.91007e-07
1.28967e-06
-1.14324e-08
1.28333e-06
2.08583e-07
1.27751e-06
-1.28785e-07
1.2707e-06
1.0048e-07
-9.87016e-08
1.25377e-06
1.34187e-06
-3.09697e-07
1.34695e-06
1.55885e-07
1.37556e-06
-5.48886e-07
1.4075e-06
2.914e-07
1.37624e-06
2.20171e-07
1.36045e-06
5.5278e-07
1.35431e-06
2.5585e-08
1.35078e-06
-4.73662e-07
1.36141e-06
-5.46723e-07
1.38397e-06
-1.73174e-07
1.37637e-06
-1.84838e-07
1.38285e-06
6.53634e-08
1.37122e-06
2.15008e-07
1.37144e-06
2.8987e-07
1.36095e-06
3.01502e-07
1.35258e-06
-3.06883e-09
1.34958e-06
2.11582e-07
1.34033e-06
-1.19525e-07
1.33792e-06
1.02882e-07
-7.71136e-08
1.31634e-06
1.40441e-06
-3.05753e-07
1.41242e-06
1.47876e-07
1.43473e-06
-5.71194e-07
1.46634e-06
2.59787e-07
1.44064e-06
2.45867e-07
1.42977e-06
5.63656e-07
1.41712e-06
3.82355e-08
1.41323e-06
-4.69775e-07
1.4196e-06
-5.5309e-07
1.44072e-06
-1.94301e-07
1.43789e-06
-1.82005e-07
1.4426e-06
6.06507e-08
1.43663e-06
2.20984e-07
1.43567e-06
2.90829e-07
1.42766e-06
3.09513e-07
1.41783e-06
6.75665e-09
1.41556e-06
2.13857e-07
1.40408e-06
-1.08047e-07
1.40336e-06
1.03599e-07
-5.37283e-08
1.37998e-06
1.47058e-06
-3.00653e-07
1.47877e-06
1.39686e-07
1.49421e-06
-5.86641e-07
1.52175e-06
2.32246e-07
1.50423e-06
2.63393e-07
1.49721e-06
5.70673e-07
1.48333e-06
5.2116e-08
1.47795e-06
-4.64395e-07
1.48088e-06
-5.56017e-07
1.49853e-06
-2.11949e-07
1.49943e-06
-1.82905e-07
1.50404e-06
5.60354e-08
1.50197e-06
2.23057e-07
1.50182e-06
2.90971e-07
1.49531e-06
3.16032e-07
1.48504e-06
1.70209e-08
1.48348e-06
2.15415e-07
1.47012e-06
-9.4683e-08
1.47093e-06
1.02784e-07
-2.9488e-08
1.44669e-06
1.54099e-06
-2.95429e-07
1.54758e-06
1.33095e-07
1.55623e-06
-5.95287e-07
1.57735e-06
2.11127e-07
1.56803e-06
2.72713e-07
1.5652e-06
5.73505e-07
1.55374e-06
6.35762e-08
1.54716e-06
-4.57817e-07
1.54641e-06
-5.55266e-07
1.5601e-06
-2.25637e-07
1.56212e-06
-1.84929e-07
1.56735e-06
5.08109e-08
1.5676e-06
2.22805e-07
1.56898e-06
2.89586e-07
1.56421e-06
3.20804e-07
1.55421e-06
2.70197e-08
1.55396e-06
2.15664e-07
1.53915e-06
-7.98699e-08
1.54147e-06
1.00461e-07
-5.23904e-09
1.51722e-06
1.6156e-06
-2.909e-07
1.62023e-06
1.28462e-07
1.62262e-06
-5.97677e-07
1.63692e-06
1.96835e-07
1.63401e-06
2.75619e-07
1.63593e-06
5.71587e-07
1.62838e-06
7.11242e-08
1.62141e-06
-4.50852e-07
1.61676e-06
-5.50608e-07
1.62657e-06
-2.35447e-07
1.62762e-06
-1.85988e-07
1.6329e-06
4.55323e-08
1.63448e-06
2.21226e-07
1.63753e-06
2.86534e-07
1.63498e-06
3.23355e-07
1.6258e-06
3.61985e-08
1.62737e-06
2.14094e-07
1.6116e-06
-6.40956e-08
1.6153e-06
9.6757e-08
1.82645e-08
1.5918e-06
1.69398e-06
-2.87305e-07
1.69726e-06
1.25186e-07
1.69437e-06
-5.94792e-07
1.70296e-06
1.88241e-07
1.70422e-06
2.74364e-07
1.71078e-06
5.65026e-07
1.707e-06
7.49067e-08
1.70021e-06
-4.44063e-07
1.69195e-06
-5.42351e-07
1.69821e-06
-2.41703e-07
1.69724e-06
-1.85018e-07
1.70176e-06
4.10102e-08
1.70402e-06
2.18969e-07
1.70867e-06
2.81885e-07
1.70865e-06
3.23373e-07
1.7005e-06
4.43449e-08
1.70416e-06
2.10436e-07
1.6878e-06
-4.77352e-08
1.6926e-06
9.19595e-08
4.03867e-08
1.67048e-06
1.77583e-06
-2.84413e-07
1.77856e-06
1.22457e-07
1.77166e-06
-5.87893e-07
1.77639e-06
1.8351e-07
1.78001e-06
2.7075e-07
1.79039e-06
5.54646e-07
1.78936e-06
7.59364e-08
1.78288e-06
-4.37589e-07
1.77173e-06
-5.31196e-07
1.775e-06
-2.44981e-07
1.7718e-06
-1.81818e-07
1.77512e-06
3.76906e-08
1.77772e-06
2.16377e-07
1.78371e-06
2.75896e-07
1.78626e-06
3.20817e-07
1.77901e-06
5.16002e-08
1.78471e-06
2.0473e-07
1.76803e-06
-3.10533e-08
1.77346e-06
8.65326e-08
6.06118e-08
1.75323e-06
1.86116e-06
-2.81827e-07
1.8639e-06
1.19721e-07
1.85424e-06
-5.78235e-07
1.85694e-06
1.80813e-07
1.86177e-06
2.65912e-07
1.87488e-06
5.41543e-07
1.87538e-06
7.54297e-08
1.86909e-06
-4.31297e-07
1.85581e-06
-5.17915e-07
1.85685e-06
-2.46021e-07
1.85179e-06
-1.76754e-07
1.85389e-06
3.5585e-08
1.85674e-06
2.13531e-07
1.86367e-06
2.68961e-07
1.86858e-06
3.1591e-07
1.86186e-06
5.83248e-08
1.86929e-06
1.97296e-07
1.85251e-06
-1.42711e-08
1.85794e-06
8.1099e-08
7.84898e-08
1.84006e-06
1.95023e-06
-2.79219e-07
1.9532e-06
1.16754e-07
1.94176e-06
-5.668e-07
1.94384e-06
1.78737e-07
1.94928e-06
2.60475e-07
1.96416e-06
5.26661e-07
1.9652e-06
7.43928e-08
1.95889e-06
-4.24987e-07
1.94412e-06
-5.0315e-07
1.94364e-06
-2.45543e-07
1.93735e-06
-1.70459e-07
1.93849e-06
3.44417e-08
1.94168e-06
2.10339e-07
1.94913e-06
2.61518e-07
1.95601e-06
3.09027e-07
1.94943e-06
6.49064e-08
1.95807e-06
1.88651e-07
1.94144e-06
2.36801e-09
1.94619e-06
7.63394e-08
9.36621e-08
1.93102e-06
2.04337e-06
-2.76402e-07
2.04661e-06
1.13515e-07
2.03401e-06
-5.54197e-07
2.03636e-06
1.76383e-07
2.04207e-06
2.54769e-07
2.05811e-06
5.10615e-07
2.05903e-06
7.34731e-08
2.05256e-06
-4.18509e-07
2.03677e-06
-4.87361e-07
2.03531e-06
-2.44091e-07
2.02844e-06
-1.6359e-07
2.02894e-06
3.39491e-08
2.03264e-06
2.06634e-07
2.0402e-06
2.53964e-07
2.04863e-06
3.00593e-07
2.04193e-06
7.16107e-08
2.05117e-06
1.79406e-07
2.03498e-06
1.85574e-08
2.03847e-06
7.2848e-08
1.05935e-07
2.0262e-06
2.14089e-06
-2.73293e-07
2.14441e-06
1.09999e-07
2.13094e-06
-5.40727e-07
2.13402e-06
1.73301e-07
2.1398e-06
2.48988e-07
2.15669e-06
4.93722e-07
2.15718e-06
7.2988e-08
2.15046e-06
-4.1179e-07
2.13396e-06
-4.70863e-07
2.13185e-06
-2.41983e-07
2.12493e-06
-1.56671e-07
2.12501e-06
3.38774e-08
2.12939e-06
2.02252e-07
2.13675e-06
2.466e-07
2.14633e-06
2.91014e-07
2.13942e-06
7.85182e-08
2.14865e-06
1.70174e-07
2.13327e-06
3.39406e-08
2.13512e-06
7.09985e-08
1.1534e-07
2.12572e-06
2.24306e-06
-2.69863e-07
2.24689e-06
1.0617e-07
2.23266e-06
-5.26496e-07
2.23662e-06
1.69339e-07
2.24233e-06
2.43274e-07
2.25995e-06
4.76106e-07
2.25991e-06
7.30243e-08
2.25294e-06
-4.0482e-07
2.23597e-06
-4.53886e-07
2.23332e-06
-2.3934e-07
2.22671e-06
-1.5006e-07
2.22646e-06
3.41306e-08
2.23162e-06
1.9709e-07
2.23862e-06
2.39604e-07
2.24896e-06
2.80669e-07
2.24196e-06
8.55236e-08
2.25062e-06
1.61509e-07
2.23638e-06
4.81781e-08
2.23653e-06
7.08503e-08
1.22159e-07
2.22971e-06
2.35011e-06
-2.661e-07
2.35432e-06
1.01965e-07
2.33934e-06
-5.11523e-07
2.34418e-06
1.64499e-07
2.34971e-06
2.37744e-07
2.36801e-06
4.57808e-07
2.3675e-06
7.35372e-08
2.36029e-06
-3.9761e-07
2.34303e-06
-4.36624e-07
2.33984e-06
-2.36149e-07
2.33375e-06
-1.43976e-07
2.33316e-06
3.4722e-08
2.33911e-06
1.9114e-07
2.3457e-06
2.33013e-07
2.35645e-06
2.69922e-07
2.34958e-06
9.23926e-08
2.35722e-06
1.53866e-07
2.34442e-06
6.09846e-08
2.34304e-06
7.22263e-08
1.26831e-07
2.33837e-06
2.46229e-06
-2.61994e-07
2.46694e-06
9.73157e-08
2.45122e-06
-4.958e-07
2.45687e-06
1.5884e-07
2.46212e-06
2.32496e-07
2.48108e-06
4.38855e-07
2.48019e-06
7.44197e-08
2.47275e-06
-3.90166e-07
2.45539e-06
-4.19263e-07
2.45157e-06
-2.32327e-07
2.44613e-06
-1.38542e-07
2.44514e-06
3.57104e-08
2.45179e-06
1.84493e-07
2.45806e-06
2.2675e-07
2.46885e-06
2.59128e-07
2.4624e-06
9.88429e-08
2.46875e-06
1.4751e-07
2.45748e-06
7.22601e-08
2.45489e-06
7.4815e-08
1.29827e-07
2.4519e-06
2.57984e-06
-2.57542e-07
2.58499e-06
9.21702e-08
2.5685e-06
-4.79317e-07
2.57492e-06
1.52427e-07
2.57982e-06
2.27591e-07
2.59938e-06
4.19297e-07
2.59826e-06
7.55428e-08
2.59056e-06
-3.82465e-07
2.57328e-06
-4.01989e-07
2.56872e-06
-2.27763e-07
2.56399e-06
-1.33818e-07
2.56257e-06
3.71317e-08
2.56973e-06
1.77335e-07
2.57585e-06
2.2063e-07
2.58634e-06
2.48633e-07
2.58057e-06
1.04621e-07
2.58561e-06
1.4247e-07
2.57572e-06
8.21471e-08
2.57233e-06
7.82085e-08
1.31594e-07
2.57056e-06
2.70303e-06
-2.5274e-07
2.7087e-06
8.64979e-08
2.69146e-06
-4.62079e-07
2.69857e-06
1.45319e-07
2.70311e-06
2.23049e-07
2.72319e-06
3.99217e-07
2.72196e-06
7.67715e-08
2.71394e-06
-3.74445e-07
2.69694e-06
-3.84982e-07
2.69153e-06
-2.22356e-07
2.68753e-06
-1.29815e-07
2.6857e-06
3.89531e-08
2.69312e-06
1.69923e-07
2.69933e-06
2.1442e-07
2.70922e-06
2.38739e-07
2.70426e-06
1.09581e-07
2.70814e-06
1.38586e-07
2.69938e-06
9.0914e-08
2.69557e-06
8.20181e-08
1.32488e-07
2.69467e-06
2.83212e-06
-2.47588e-07
2.83833e-06
8.02899e-08
2.82035e-06
-4.44105e-07
2.8281e-06
1.37567e-07
2.8323e-06
2.18848e-07
2.85279e-06
3.78729e-07
2.8516e-06
7.79666e-08
2.84316e-06
-3.66013e-07
2.8266e-06
-3.68415e-07
2.82027e-06
-2.16033e-07
2.81695e-06
-1.2649e-07
2.81484e-06
4.10583e-08
2.82222e-06
1.6255e-07
2.82876e-06
2.07881e-07
2.83781e-06
2.2968e-07
2.83369e-06
1.1371e-07
2.83669e-06
1.3558e-07
2.82878e-06
9.88266e-08
2.82482e-06
8.59812e-08
1.32726e-07
2.82458e-06
2.9674e-06
-2.42092e-07
2.97413e-06
7.35549e-08
2.95547e-06
-4.25436e-07
2.9638e-06
1.29234e-07
2.96772e-06
2.14931e-07
2.98847e-06
3.57972e-07
2.98745e-06
7.89851e-08
2.97849e-06
-3.57053e-07
2.96251e-06
-3.52433e-07
2.95526e-06
-2.08775e-07
2.9525e-06
-1.2374e-07
2.95031e-06
4.32557e-08
2.95734e-06
1.55519e-07
2.96438e-06
2.00834e-07
2.97254e-06
2.21526e-07
2.96907e-06
1.17181e-07
2.97152e-06
1.33124e-07
2.96431e-06
1.06039e-07
2.96029e-06
9.00085e-08
1.32391e-07
2.96062e-06
3.10917e-06
-2.3626e-07
3.11641e-06
6.63155e-08
3.09711e-06
-4.06135e-07
3.10595e-06
1.20396e-07
3.10967e-06
2.11212e-07
3.13054e-06
3.37106e-07
3.12984e-06
7.96805e-08
3.12024e-06
-3.47449e-07
3.10495e-06
-3.37145e-07
3.0968e-06
-2.00627e-07
3.09446e-06
-1.21396e-07
3.09241e-06
4.53063e-08
3.09882e-06
1.49104e-07
3.10646e-06
1.93195e-07
3.11378e-06
2.14203e-07
3.1107e-06
1.20266e-07
3.11287e-06
1.30955e-07
3.10636e-06
1.12543e-07
3.10223e-06
9.41453e-08
1.31511e-07
3.10311e-06
3.25775e-06
-2.30104e-07
3.26546e-06
5.86074e-08
3.24561e-06
-3.86288e-07
3.25486e-06
1.1115e-07
3.25849e-06
2.07581e-07
3.27929e-06
3.16305e-07
3.27906e-06
7.99106e-08
3.26872e-06
-3.37106e-07
3.25418e-06
-3.22606e-07
3.24525e-06
-1.91696e-07
3.24311e-06
-1.19256e-07
3.24143e-06
4.69835e-08
3.24703e-06
1.43504e-07
3.25523e-06
1.84999e-07
3.2619e-06
2.07536e-07
3.25892e-06
1.23238e-07
3.26095e-06
1.28925e-07
3.25528e-06
1.18216e-07
3.25095e-06
9.84763e-08
1.30139e-07
3.25232e-06
3.41346e-06
-2.23637e-07
3.42159e-06
5.04783e-08
3.40131e-06
-3.66005e-07
3.41085e-06
1.01613e-07
3.41451e-06
2.03918e-07
3.43507e-06
2.95747e-07
3.43543e-06
7.95498e-08
3.4243e-06
-3.25972e-07
3.4105e-06
-3.08805e-07
3.40095e-06
-1.82153e-07
3.39879e-06
-1.17096e-07
3.39768e-06
4.80976e-08
3.40236e-06
1.38824e-07
3.41095e-06
1.76408e-07
3.4172e-06
2.01286e-07
3.41414e-06
1.26301e-07
3.41604e-06
1.27018e-07
3.41138e-06
1.22877e-07
3.40681e-06
1.03045e-07
1.28415e-07
3.40854e-06
3.57665e-06
-2.16876e-07
3.58514e-06
4.19887e-08
3.56456e-06
-3.45423e-07
3.57425e-06
9.19211e-08
3.57807e-06
2.001e-07
3.59822e-06
2.75599e-07
3.59926e-06
7.85052e-08
3.58734e-06
-3.14053e-07
3.57422e-06
-2.95685e-07
3.56426e-06
-1.72192e-07
3.56186e-06
-1.14701e-07
3.56144e-06
4.85252e-08
3.56519e-06
1.35072e-07
3.57392e-06
1.67679e-07
3.58001e-06
1.95197e-07
3.57675e-06
1.2956e-07
3.57846e-06
1.25304e-07
3.57497e-06
1.26369e-07
3.57021e-06
1.078e-07
1.26575e-07
3.57205e-06
3.74767e-06
-2.09838e-07
3.75644e-06
3.32123e-08
3.73572e-06
-3.24699e-07
3.74542e-06
8.22164e-08
3.74951e-06
1.96013e-07
3.7691e-06
2.56005e-07
3.77088e-06
7.67332e-08
3.75824e-06
-3.01418e-07
3.7457e-06
-2.8314e-07
3.73552e-06
-1.62014e-07
3.73272e-06
-1.11908e-07
3.73301e-06
4.82373e-08
3.73592e-06
1.32169e-07
3.74447e-06
1.5913e-07
3.75061e-06
1.89054e-07
3.74715e-06
1.33018e-07
3.74857e-06
1.23881e-07
3.74632e-06
1.2862e-07
3.74155e-06
1.12569e-07
1.24925e-07
3.7432e-06
3.92689e-06
-2.02541e-07
3.93587e-06
2.42349e-08
3.91518e-06
-3.04007e-07
3.92475e-06
7.26404e-08
3.9292e-06
1.9157e-07
3.94813e-06
2.37071e-07
3.95062e-06
7.42442e-08
3.93739e-06
-2.88193e-07
3.9253e-06
-2.7105e-07
3.91508e-06
-1.51787e-07
3.91179e-06
-1.08621e-07
3.91273e-06
4.72975e-08
3.91492e-06
1.29978e-07
3.92301e-06
1.51045e-07
3.9293e-06
1.82756e-07
3.92575e-06
1.36568e-07
3.92679e-06
1.22845e-07
3.92575e-06
1.29665e-07
3.92124e-06
1.17073e-07
1.23777e-07
3.92239e-06
4.11471e-06
-1.95006e-07
4.1238e-06
1.51529e-08
4.10332e-06
-2.83533e-07
4.11265e-06
6.33168e-08
4.11749e-06
1.86726e-07
4.13571e-06
2.18848e-07
4.13885e-06
7.11042e-08
4.12519e-06
-2.74533e-07
4.11345e-06
-2.59307e-07
4.10329e-06
-1.41629e-07
4.09949e-06
-1.04816e-07
4.10096e-06
4.5822e-08
4.10257e-06
1.28369e-07
4.10997e-06
1.43649e-07
4.11645e-06
1.7627e-07
4.11298e-06
1.40042e-07
4.11353e-06
1.22296e-07
4.11357e-06
1.29626e-07
4.10966e-06
1.20984e-07
1.23339e-07
4.1101e-06
4.31155e-06
-1.87254e-07
4.32063e-06
6.06984e-09
4.30056e-06
-2.63458e-07
4.30954e-06
5.43356e-08
4.31478e-06
1.81481e-07
4.33229e-06
2.01343e-07
4.33597e-06
6.74201e-08
4.32205e-06
-2.6061e-07
4.31057e-06
-2.47825e-07
4.30054e-06
-1.31604e-07
4.29622e-06
-1.00494e-07
4.29812e-06
4.39208e-08
4.29925e-06
1.27243e-07
4.30576e-06
1.37135e-07
4.31245e-06
1.69586e-07
4.30927e-06
1.43216e-07
4.30925e-06
1.22316e-07
4.31016e-06
1.28714e-07
4.30715e-06
1.23995e-07
1.23619e-07
4.30687e-06
4.51783e-06
-1.7931e-07
4.52681e-06
-2.9115e-09
4.5073e-06
-2.43944e-07
4.5159e-06
4.57313e-08
4.52148e-06
1.75897e-07
4.53831e-06
1.84518e-07
4.54241e-06
6.33185e-08
4.52836e-06
-2.46563e-07
4.51712e-06
-2.3658e-07
4.50725e-06
-1.21735e-07
4.50239e-06
-9.56379e-08
4.50462e-06
4.1691e-08
4.50534e-06
1.26527e-07
4.51079e-06
1.31683e-07
4.51769e-06
1.62688e-07
4.51507e-06
1.45838e-07
4.51447e-06
1.22913e-07
4.51596e-06
1.27224e-07
4.51407e-06
1.25891e-07
1.24407e-07
4.51328e-06
4.734e-06
-1.71197e-07
4.74279e-06
-1.16962e-08
4.72395e-06
-2.25106e-07
4.73221e-06
3.74659e-08
4.73802e-06
1.70087e-07
4.75423e-06
1.68317e-07
4.75863e-06
5.89157e-08
4.74452e-06
-2.32451e-07
4.73355e-06
-2.25618e-07
4.72386e-06
-1.12042e-07
4.71841e-06
-9.01868e-08
4.72088e-06
3.92261e-08
4.72127e-06
1.26128e-07
4.7255e-06
1.27462e-07
4.73262e-06
1.5556e-07
4.7308e-06
1.47658e-07
4.72971e-06
1.24006e-07
4.73146e-06
1.25475e-07
4.73073e-06
1.26621e-07
1.25327e-07
4.72981e-06
4.96054e-06
-1.62938e-07
4.96905e-06
-2.02094e-08
4.95095e-06
-2.07001e-07
4.95899e-06
2.94259e-08
4.96489e-06
1.64189e-07
4.98049e-06
1.52714e-07
4.98513e-06
5.42767e-08
4.97092e-06
-2.18248e-07
4.96031e-06
-2.15005e-07
4.95086e-06
-1.02586e-07
4.94469e-06
-8.4016e-08
4.94727e-06
3.66438e-08
4.9475e-06
1.25897e-07
4.95047e-06
1.24487e-07
4.95774e-06
1.48294e-07
4.95692e-06
1.48473e-07
4.95547e-06
1.25459e-07
4.95723e-06
1.23717e-07
4.95752e-06
1.26332e-07
1.25966e-07
4.95688e-06
5.19793e-06
-1.54554e-07
5.20613e-06
-2.84025e-08
5.18874e-06
-1.89617e-07
5.19673e-06
2.14389e-08
5.20259e-06
1.58323e-07
5.21755e-06
1.37763e-07
5.22249e-06
4.93309e-08
5.20807e-06
-2.03825e-07
5.1978e-06
-2.04734e-07
5.18872e-06
-9.35119e-08
5.18168e-06
-7.69705e-08
5.18418e-06
3.41405e-08
5.1845e-06
1.25583e-07
5.18639e-06
1.22589e-07
5.19358e-06
1.41109e-07
5.19389e-06
1.48161e-07
5.19224e-06
1.27106e-07
5.19386e-06
1.22101e-07
5.19491e-06
1.25281e-07
1.26028e-07
5.19485e-06
5.4467e-06
-1.46061e-07
5.45456e-06
-3.62629e-08
5.43781e-06
-1.72876e-07
5.44596e-06
1.32982e-08
5.45174e-06
1.52541e-07
5.46584e-06
1.23656e-07
5.47128e-06
4.38924e-08
5.45649e-06
-1.89032e-07
5.44643e-06
-1.94669e-07
5.43792e-06
-8.50092e-08
5.42992e-06
-6.89641e-08
5.43209e-06
3.19697e-08
5.43283e-06
1.24841e-07
5.43391e-06
1.21507e-07
5.44072e-06
1.34298e-07
5.44218e-06
1.46705e-07
5.44052e-06
1.28763e-07
5.44191e-06
1.20713e-07
5.44349e-06
1.23702e-07
1.25415e-07
5.4441e-06
5.70737e-06
-1.37469e-07
5.71491e-06
-4.38091e-08
5.69871e-06
-1.56675e-07
5.70718e-06
4.83231e-09
5.71295e-06
1.4677e-07
5.72586e-06
1.10745e-07
5.732e-06
3.77549e-08
5.71679e-06
-1.73821e-07
5.70661e-06
-1.84495e-07
5.69886e-06
-7.72546e-08
5.68997e-06
-6.0079e-08
5.69158e-06
3.03617e-08
5.69304e-06
1.23377e-07
5.69357e-06
1.20981e-07
5.69981e-06
1.28057e-07
5.70231e-06
1.44202e-07
5.70082e-06
1.30258e-07
5.70193e-06
1.19606e-07
5.70388e-06
1.2175e-07
1.24193e-07
5.7051e-06
5.98051e-06
-1.28788e-07
5.98779e-06
-5.10838e-08
5.97202e-06
-1.4091e-07
5.98088e-06
-4.02546e-09
5.98689e-06
1.40761e-07
5.99814e-06
9.94935e-08
6.00506e-06
3.08381e-08
5.98963e-06
-1.5839e-07
5.97879e-06
-1.73656e-07
5.97187e-06
-7.03336e-08
5.96245e-06
-5.0661e-08
5.9633e-06
2.95138e-08
5.96565e-06
1.21023e-07
5.96592e-06
1.20708e-07
5.97146e-06
1.2252e-07
5.97485e-06
1.40814e-07
5.97369e-06
1.31419e-07
5.97447e-06
1.18825e-07
5.9767e-06
1.19519e-07
1.22465e-07
5.97843e-06
6.26673e-06
-1.20026e-07
6.27378e-06
-5.81399e-08
6.25838e-06
-1.25506e-07
6.26747e-06
-1.31204e-08
6.27419e-06
1.34039e-07
6.28338e-06
9.03108e-08
6.29092e-06
2.33001e-08
6.27562e-06
-1.43096e-07
6.26358e-06
-1.6161e-07
6.25736e-06
-6.41172e-08
6.24794e-06
-4.12403e-08
6.24803e-06
2.94171e-08
6.25121e-06
1.17852e-07
6.25152e-06
1.20396e-07
6.25629e-06
1.1775e-07
6.26038e-06
1.36722e-07
6.25972e-06
1.3208e-07
6.26015e-06
1.18396e-07
6.26255e-06
1.17118e-07
1.20301e-07
6.26471e-06
6.56664e-06
-1.11194e-07
6.57351e-06
-6.50167e-08
6.55847e-06
-1.10461e-07
6.56748e-06
-2.21298e-08
6.57548e-06
1.26041e-07
6.58237e-06
8.34212e-08
6.59007e-06
1.55945e-08
6.57545e-06
-1.28472e-07
6.56184e-06
-1.48006e-07
6.55602e-06
-5.82939e-08
6.54724e-06
-3.24557e-08
6.54668e-06
2.99741e-08
6.55037e-06
1.14163e-07
6.5509e-06
1.19866e-07
6.55493e-06
1.13719e-07
6.55953e-06
1.32123e-07
6.55952e-06
1.3209e-07
6.55962e-06
1.18296e-07
6.56204e-06
1.14698e-07
1.17733e-07
6.56461e-06
6.88091e-06
-1.02308e-07
6.88762e-06
-7.17328e-08
6.873e-06
-9.58379e-08
6.88152e-06
-3.06544e-08
6.89131e-06
1.16253e-07
6.89595e-06
7.87798e-08
6.90319e-06
8.3579e-09
6.88972e-06
-1.14999e-07
6.87466e-06
-1.32953e-07
6.8688e-06
-5.24338e-08
6.86109e-06
-2.47416e-08
6.86001e-06
3.10487e-08
6.86386e-06
1.10321e-07
6.86467e-06
1.19056e-07
6.86803e-06
1.10354e-07
6.87295e-06
1.27204e-07
6.8737e-06
1.31341e-07
6.87358e-06
1.18419e-07
6.87584e-06
1.12435e-07
1.14815e-07
6.87876e-06
7.21023e-06
-9.33975e-08
7.21676e-06
-7.82648e-08
7.20271e-06
-8.17875e-08
7.21027e-06
-3.82205e-08
7.22223e-06
1.04296e-07
7.22497e-06
7.60361e-08
7.23104e-06
2.28958e-09
7.21899e-06
-1.02946e-07
7.20293e-06
-1.16894e-07
7.19657e-06
-4.60739e-08
7.18994e-06
-1.81161e-08
7.18871e-06
3.22842e-08
7.19243e-06
1.06595e-07
7.19348e-06
1.18012e-07
7.19626e-06
1.0757e-07
7.20134e-06
1.22125e-07
7.20291e-06
1.29776e-07
7.20272e-06
1.18603e-07
7.20468e-06
1.10477e-07
1.11657e-07
7.20784e-06
7.55533e-06
-8.45016e-08
7.56161e-06
-8.45414e-08
7.54834e-06
-6.85201e-08
7.55446e-06
-4.43399e-08
7.56858e-06
9.01733e-08
7.57019e-06
7.44264e-08
7.57445e-06
-1.97289e-09
7.56384e-06
-9.2335e-08
7.54745e-06
-1.00504e-07
7.5402e-06
-3.88232e-08
7.53441e-06
-1.23223e-08
7.53335e-06
3.33383e-08
7.53689e-06
1.03062e-07
7.53808e-06
1.16821e-07
7.54034e-06
1.05313e-07
7.54541e-06
1.17047e-07
7.54781e-06
1.27378e-07
7.54776e-06
1.18655e-07
7.54934e-06
1.089e-07
1.08426e-07
7.55257e-06
7.91699e-06
-7.56815e-08
7.92288e-06
-9.04287e-08
7.91067e-06
-5.63137e-08
7.91483e-06
-4.85003e-08
7.93079e-06
7.42126e-08
7.93223e-06
7.29861e-08
7.93426e-06
-4.00292e-09
7.92497e-06
-8.30419e-08
7.90883e-06
-8.4367e-08
7.90061e-06
-3.05978e-08
7.89524e-06
-6.95531e-09
7.89452e-06
3.40548e-08
7.89799e-06
9.95947e-08
7.89927e-06
1.15543e-07
7.90102e-06
1.03563e-07
7.90594e-06
1.12124e-07
7.90914e-06
1.24183e-07
7.90941e-06
1.1838e-07
7.91063e-06
1.07686e-07
1.05324e-07
7.91373e-06
8.29602e-06
-6.70189e-08
8.30132e-06
-9.57347e-08
8.29055e-06
-4.55416e-08
8.2922e-06
-5.01463e-08
8.30954e-06
5.68715e-08
8.31167e-06
7.08588e-08
8.31124e-06
-3.57405e-09
8.30302e-06
-7.48225e-08
8.28773e-06
-6.90739e-08
8.27864e-06
-2.15153e-08
8.27328e-06
-1.59629e-09
8.27291e-06
3.4432e-08
8.27648e-06
9.602e-08
8.27787e-06
1.14154e-07
8.27913e-06
1.02301e-07
8.28373e-06
1.07527e-07
8.28763e-06
1.20278e-07
8.28841e-06
1.17601e-07
8.28938e-06
1.06718e-07
1.0253e-07
8.29217e-06
8.69326e-06
-5.86169e-08
8.69775e-06
-1.00225e-07
8.6888e-06
-3.65878e-08
8.68748e-06
-4.88294e-08
8.70555e-06
3.87974e-08
8.70895e-06
6.74617e-08
8.7061e-06
-7.23762e-10
8.69858e-06
-6.73051e-08
8.68481e-06
-5.52966e-08
8.67519e-06
-1.19037e-08
8.66948e-06
4.12024e-09
8.66928e-06
3.4627e-08
8.6731e-06
9.22025e-08
8.6747e-06
1.12555e-07
8.67556e-06
1.01445e-07
8.67965e-06
1.03435e-07
8.6841e-06
1.15825e-07
8.68552e-06
1.16178e-07
8.68642e-06
1.05826e-07
1.00132e-07
8.68881e-06
9.10959e-06
-5.05927e-08
9.11303e-06
-1.03659e-07
9.10619e-06
-2.97444e-08
9.10188e-06
-4.4527e-08
9.11955e-06
2.11348e-08
9.12457e-06
6.24382e-08
9.11956e-06
4.28091e-09
9.11233e-06
-6.0075e-08
9.10072e-06
-4.36812e-08
9.09112e-06
-2.30304e-09
9.08485e-06
1.03933e-08
9.08456e-06
3.4916e-08
9.08863e-06
8.81275e-08
9.09058e-06
1.10604e-07
9.09117e-06
1.00858e-07
9.09464e-06
9.99668e-08
9.09941e-06
1.11055e-07
9.10155e-06
1.14036e-07
9.10255e-06
1.04822e-07
9.80957e-08
9.10459e-06
9.54594e-06
-4.30714e-08
9.54812e-06
-1.05836e-07
9.5435e-06
-2.513e-08
9.53662e-06
-3.76474e-08
9.5524e-06
5.35793e-09
9.55923e-06
5.56079e-08
9.55268e-06
1.08266e-08
9.54531e-06
-5.26974e-08
9.53616e-06
-3.45314e-08
9.52724e-06
6.61423e-09
9.52042e-06
1.72086e-08
9.5197e-06
3.56425e-08
9.52394e-06
8.38818e-08
9.52638e-06
1.08163e-07
9.52686e-06
1.00382e-07
9.52968e-06
9.71433e-08
9.53451e-06
1.06228e-07
9.53735e-06
1.11198e-07
9.53863e-06
1.03539e-07
9.6283e-08
9.54044e-06
1.00032e-05
-3.61812e-08
1.0004e-05
-1.06561e-07
1.00016e-05
-2.27655e-08
9.99282e-06
-2.88611e-08
1.00053e-05
-7.15786e-09
1.00142e-05
4.67525e-08
1.00073e-05
1.77465e-08
9.99896e-06
-4.43915e-08
9.99194e-06
-2.75024e-08
9.98432e-06
1.42285e-08
9.97721e-06
2.43222e-08
9.97576e-06
3.70892e-08
9.98003e-06
7.96123e-08
9.98297e-06
1.05224e-07
9.98354e-06
9.98065e-08
9.98577e-06
9.49226e-08
9.99043e-06
1.01563e-07
9.99387e-06
1.07763e-07
9.99552e-06
1.01879e-07
9.45031e-08
9.9973e-06
1.04825e-05
-3.00459e-08
1.04816e-05
-1.05669e-07
1.04814e-05
-2.25556e-08
1.04716e-05
-1.90133e-08
1.04799e-05
-1.55014e-08
1.04906e-05
3.60099e-08
1.04845e-05
2.38764e-08
1.04748e-05
-3.47106e-08
1.04691e-05
-2.17226e-08
1.04631e-05
2.01396e-08
1.04561e-05
3.13205e-08
1.04539e-05
3.93092e-08
1.04579e-05
7.563e-08
1.04613e-05
1.01806e-07
1.04622e-05
9.89607e-08
1.04639e-05
9.31835e-08
1.04682e-05
9.7237e-08
1.04721e-05
1.03857e-07
1.04742e-05
9.9835e-08
9.25995e-08
1.04761e-05
1.09847e-05
-2.47699e-08
1.09821e-05
-1.03002e-07
1.09838e-05
-2.42737e-08
1.09739e-05
-9.10993e-09
1.09778e-05
-1.9415e-08
1.09894e-05
2.43833e-08
1.09852e-05
2.81439e-08
1.09743e-05
-2.38405e-08
1.09687e-05
-1.6159e-08
1.09645e-05
2.43464e-08
1.09582e-05
3.76304e-08
1.09553e-05
4.22322e-08
1.09587e-05
7.22292e-08
1.09625e-05
9.79925e-08
1.09637e-05
9.77443e-08
1.09652e-05
9.17488e-08
1.0969e-05
9.33819e-08
1.09732e-05
9.96171e-08
1.09757e-05
9.74289e-08
9.05282e-08
1.09777e-05
1.1511e-05
-2.04228e-08
1.15065e-05
-9.84518e-08
1.15097e-05
-2.75513e-08
1.15008e-05
-1.31031e-10
1.15005e-05
-1.91084e-08
1.15117e-05
1.31385e-08
1.151e-05
2.98872e-08
1.14986e-05
-1.24553e-08
1.14924e-05
-9.95802e-09
1.14895e-05
2.71981e-08
1.14843e-05
4.28133e-08
1.14809e-05
4.56422e-08
1.14836e-05
6.95318e-08
1.14876e-05
9.40117e-08
1.14893e-05
9.6088e-08
1.14906e-05
9.04376e-08
1.14939e-05
9.00503e-08
1.14983e-05
9.52118e-08
1.15011e-05
9.46301e-08
8.83599e-08
1.15033e-05
1.20624e-05
-1.70238e-08
1.2056e-05
-9.20454e-08
1.20603e-05
-3.1862e-08
1.20531e-05
7.11614e-09
1.20493e-05
-1.52946e-08
1.20587e-05
3.72319e-09
1.20597e-05
2.89041e-08
1.20487e-05
-1.50603e-09
1.20415e-05
-2.72246e-09
1.20394e-05
2.93209e-08
1.20354e-05
4.67275e-08
1.2032e-05
4.90861e-08
1.20339e-05
6.76176e-08
1.20379e-05
9.00578e-08
1.20399e-05
9.40226e-08
1.20413e-05
8.90944e-08
1.20441e-05
8.72116e-08
1.20485e-05
9.08634e-08
1.20517e-05
9.13718e-08
8.61545e-08
1.20539e-05
1.26401e-05
-1.45293e-08
1.2632e-05
-8.39921e-08
1.26367e-05
-3.6481e-08
1.26317e-05
1.2048e-08
1.26253e-05
-8.87844e-09
1.26319e-05
-2.84322e-09
1.26351e-05
2.56974e-08
1.26256e-05
7.95185e-09
1.26175e-05
5.37418e-09
1.26154e-05
3.15043e-08
1.26126e-05
4.94327e-08
1.26096e-05
5.21683e-08
1.26108e-05
6.64141e-08
1.26145e-05
8.62985e-08
1.26169e-05
9.16146e-08
1.26184e-05
8.76002e-08
1.26209e-05
8.4758e-08
1.2625e-05
8.67899e-08
1.26287e-05
8.76676e-08
8.38383e-08
1.2631e-05
1.32452e-05
-1.28251e-08
1.3236e-05
-7.47649e-08
1.324e-05
-4.04817e-08
1.32376e-05
1.44402e-08
1.32298e-05
-1.03399e-09
1.32329e-05
-5.98717e-09
1.32373e-05
2.12697e-08
1.32302e-05
1.50582e-08
1.32218e-05
1.38526e-08
1.3219e-05
3.42248e-08
1.32172e-05
5.1227e-08
1.32147e-05
5.4696e-08
1.32155e-05
6.56604e-08
1.32189e-05
8.28771e-08
1.32215e-05
8.89636e-08
1.32233e-05
8.5887e-08
1.32255e-05
8.25388e-08
1.32291e-05
8.31361e-08
1.32331e-05
8.36838e-08
8.12327e-08
1.32357e-05
1.38791e-05
-1.17406e-08
1.38692e-05
-6.48854e-08
1.38717e-05
-4.30187e-08
1.38718e-05
1.43974e-08
1.38637e-05
7.04213e-09
1.38634e-05
-5.68363e-09
1.38678e-05
1.68576e-08
1.38634e-05
1.94731e-08
1.38554e-05
2.18846e-08
1.3852e-05
3.76347e-08
1.38506e-05
5.26129e-08
1.38487e-05
5.65844e-08
1.38492e-05
6.51025e-08
1.38523e-05
7.97934e-08
1.38551e-05
8.62008e-08
1.3857e-05
8.39435e-08
1.38592e-05
8.03807e-08
1.38624e-05
7.99321e-08
1.38664e-05
7.96848e-08
7.82091e-08
1.38694e-05
1.4543e-05
-1.10599e-08
1.45329e-05
-5.47827e-08
1.45334e-05
-4.34876e-08
1.45354e-05
1.23004e-08
1.45282e-05
1.42572e-08
1.45251e-05
-2.51209e-09
1.45282e-05
1.3691e-08
1.45262e-05
2.14525e-08
1.45196e-05
2.85566e-08
1.45156e-05
4.16434e-08
1.45142e-05
5.39888e-08
1.45128e-05
5.7929e-08
1.45133e-05
6.46096e-08
1.45162e-05
7.69331e-08
1.4519e-05
8.34067e-08
1.45211e-05
8.18457e-08
1.45233e-05
7.81356e-08
1.45262e-05
7.70762e-08
1.453e-05
7.59226e-08
7.478e-08
1.45334e-05
1.52384e-05
-1.05578e-08
1.52286e-05
-4.49994e-08
1.52268e-05
-4.16427e-08
1.52301e-05
8.95903e-09
1.52246e-05
1.97803e-08
1.52194e-05
2.64115e-09
1.52206e-05
1.25147e-08
1.52202e-05
2.18565e-08
1.52154e-05
3.33303e-08
1.52113e-05
4.57461e-08
1.52097e-05
5.55957e-08
1.52087e-05
5.89612e-08
1.52092e-05
6.41067e-08
1.52119e-05
7.42207e-08
1.52148e-05
8.05337e-08
1.52169e-05
7.96913e-08
1.52193e-05
7.5796e-08
1.5222e-05
7.43533e-08
1.52253e-05
7.2564e-08
7.11088e-08
1.5229e-05
1.59668e-05
-1.00292e-08
1.59578e-05
-3.60231e-08
1.59538e-05
-3.76644e-08
1.59574e-05
5.38115e-09
1.5954e-05
2.3253e-08
1.59479e-05
8.66182e-09
1.59469e-05
1.3521e-08
1.59469e-05
2.18391e-08
1.59441e-05
3.6181e-08
1.59406e-05
4.92439e-08
1.59387e-05
5.7499e-08
1.59377e-05
5.991e-08
1.59383e-05
6.35743e-08
1.59408e-05
7.17163e-08
1.59438e-05
7.74799e-08
1.59461e-05
7.74593e-08
1.59484e-05
7.34711e-08
1.59512e-05
7.15827e-08
1.59542e-05
6.95651e-08
6.7471e-08
1.59578e-05
1.67299e-05
-9.3391e-09
1.6722e-05
-2.81145e-08
1.67164e-05
-3.21006e-08
1.67193e-05
2.52559e-09
1.67178e-05
2.47707e-08
1.67119e-05
1.45629e-08
1.6709e-05
1.64246e-08
1.67085e-05
2.23396e-08
1.67071e-05
3.75133e-08
1.67047e-05
5.17023e-08
1.67028e-05
5.94269e-08
1.67017e-05
6.09209e-08
1.67022e-05
6.30789e-08
1.67045e-05
6.94342e-08
1.67076e-05
7.43519e-08
1.67101e-05
7.4986e-08
1.67124e-05
7.12336e-08
1.67152e-05
6.87581e-08
1.6718e-05
6.67149e-08
6.41138e-08
1.67214e-05
1.75295e-05
-8.4336e-09
1.75228e-05
-2.14467e-08
1.75163e-05
-2.56251e-08
1.75178e-05
1.06401e-09
1.75176e-05
2.49341e-08
1.75125e-05
1.96746e-08
1.75084e-05
2.05578e-08
1.75068e-05
2.38699e-08
1.75063e-05
3.80233e-08
1.7505e-05
5.30414e-08
1.75034e-05
6.09647e-08
1.75024e-05
6.19969e-08
1.75027e-05
6.27352e-08
1.75048e-05
6.73165e-08
1.75079e-05
7.13306e-08
1.75106e-05
7.22242e-08
1.75129e-05
6.89797e-08
1.75156e-05
6.59898e-08
1.75185e-05
6.38216e-08
6.10954e-08
1.75215e-05
1.83672e-05
-7.31357e-09
1.83617e-05
-1.58839e-08
1.8355e-05
-1.89188e-08
1.83549e-05
1.16784e-09
1.83553e-05
2.44714e-08
1.83513e-05
2.37368e-08
1.83466e-05
2.51952e-08
1.8344e-05
2.64473e-08
1.83436e-05
3.8499e-08
1.83432e-05
5.3403e-08
1.83423e-05
6.18452e-08
1.83413e-05
6.301e-08
1.83415e-05
6.25254e-08
1.83434e-05
6.54569e-08
1.83463e-05
6.84159e-08
1.83492e-05
6.93263e-08
1.83516e-05
6.65629e-08
1.83543e-05
6.33288e-08
1.83573e-05
6.08386e-08
5.82701e-08
1.83601e-05
1.92451e-05
-6.01347e-09
1.92404e-05
-1.11991e-08
1.92339e-05
-1.24152e-08
1.92324e-05
2.63738e-09
1.92329e-05
2.39926e-08
1.92298e-05
2.68131e-08
1.92253e-05
2.9736e-08
1.92219e-05
2.9809e-08
1.9221e-05
3.94668e-08