/*--------------------------------*- C++ -*----------------------------------*\
| =========                 |                                                 |
| \\      /  F ield         | OpenFOAM: The Open Source CFD Toolbox           |
|  \\    /   O peration     | Version:  3.0.1                                 |
|   \\  /    A nd           | Web:      www.OpenFOAM.org                      |
|    \\/     M anipulation  |                                                 |
\*---------------------------------------------------------------------------*/
FoamFile
{
    version     2.0;
    format      ascii;
    class       volVectorField;
    location    "1.4";
    object      U;
}
// * * * * * * * * * * * * * * * * * * * * * * * * * * * * * * * * * * * * * //

dimensions      [0 1 -1 0 0 0 0];

internalField   nonuniform List<vector> 
9600
(
(0.849883 -0.00316128 0)
(1.1375 0.00163373 0)
(0.855633 -0.00507066 0)
(1.1765 0.0051161 0)
(0.915573 0.00148378 0)
(1.10946 0.0069889 0)
(0.86819 0.000998373 0)
(1.13426 -0.00900975 0)
(0.871846 -0.00951627 0)
(1.15493 -0.00234208 0)
(0.908068 -0.00498168 0)
(1.13175 0.00216438 0)
(0.921474 0.004825 0)
(1.11171 0.00862521 0)
(0.915424 0.0086564 0)
(1.09827 -0.00129315 0)
(0.89365 0.00768325 0)
(1.099 -0.00641587 0)
(0.86165 0.00357194 0)
(1.10441 -0.00658205 0)
(0.861289 -0.00315508 0)
(1.12804 0.001748 0)
(0.870695 -0.0055536 0)
(1.16663 0.0047061 0)
(0.931986 0.00194606 0)
(1.09894 0.00763526 0)
(0.895435 0.000475502 0)
(1.11162 -0.00884177 0)
(0.897237 -0.0100792 0)
(1.13189 -0.00263386 0)
(0.935921 -0.00483522 0)
(1.1086 0.00211692 0)
(0.953051 0.00497555 0)
(1.07919 0.00885728 0)
(0.96185 0.00878364 0)
(1.04877 -0.000639659 0)
(0.959167 0.00772902 0)
(1.02466 -0.00611143 0)
(0.960568 0.0044292 0)
(0.991552 -0.00775736 0)
(0.881845 -0.00314359 0)
(1.10893 0.0017825 0)
(0.896214 -0.00603034 0)
(1.14498 0.00436461 0)
(0.958786 0.00245172 0)
(1.08023 0.00811974 0)
(0.933703 0.000307465 0)
(1.07847 -0.008717 0)
(0.933941 -0.0104967 0)
(1.09429 -0.00300953 0)
(0.974748 -0.00460951 0)
(1.07329 0.00192635 0)
(0.990895 0.00542996 0)
(1.04474 0.00883124 0)
(0.999202 0.00933629 0)
(1.01893 -0.00049593 0)
(0.992891 0.00790497 0)
(1.00452 -0.00544488 0)
(0.989201 0.00421865 0)
(0.988686 -0.00527435 0)
(0.90812 -0.00312679 0)
(1.08307 0.00174344 0)
(0.925396 -0.00639865 0)
(1.1146 0.00400083 0)
(0.985598 0.00291149 0)
(1.05875 0.00840249 0)
(0.968362 0.000332568 0)
(1.04555 -0.00865421 0)
(0.965778 -0.0107326 0)
(1.05712 -0.00349629 0)
(1.00343 -0.00438609 0)
(1.04467 0.00172521 0)
(1.01269 0.00585176 0)
(1.0273 0.00876471 0)
(1.01394 0.00977235 0)
(1.01111 -0.000306052 0)
(1.00198 0.00824291 0)
(1.00279 -0.00531519 0)
(0.994488 0.00459898 0)
(0.991945 -0.00409111 0)
(0.935486 -0.00309319 0)
(1.05585 0.0016646 0)
(0.951713 -0.00668853 0)
(1.08154 0.00356947 0)
(1.0044 0.0033101 0)
(1.03962 0.00859557 0)
(0.991688 0.000513039 0)
(1.02162 -0.00859623 0)
(0.984756 -0.0108823 0)
(1.03032 -0.00399151 0)
(1.01527 -0.00426735 0)
(1.02798 0.00158679 0)
(1.01929 0.00608386 0)
(1.02113 0.00877909 0)
(1.01773 0.0100643 0)
(1.00981 5.60427e-05 0)
(1.00415 0.00833878 0)
(1.00233 -0.00491795 0)
(0.995667 0.00481618 0)
(0.992087 -0.00313362 0)
(0.95953 -0.00304337 0)
(1.03262 0.00156898 0)
(0.971382 -0.00690845 0)
(1.05175 0.0031635 0)
(1.0126 0.00361515 0)
(1.02528 0.00872817 0)
(1.0036 0.000752525 0)
(1.00882 -0.0085068 0)
(0.992725 -0.0109776 0)
(1.01446 -0.0044102 0)
(1.01549 -0.00426377 0)
(1.01841 0.00147944 0)
(1.01822 0.00618457 0)
(1.01786 0.00880184 0)
(1.01749 0.0103118 0)
(1.00915 0.000429507 0)
(1.00427 0.00838342 0)
(1.00205 -0.00433619 0)
(0.9957 0.00478103 0)
(0.992152 -0.00200009 0)
(0.977577 -0.00298892 0)
(1.01631 0.00148347 0)
(0.983894 -0.00704891 0)
(1.02869 0.00284414 0)
(1.0124 0.00380136 0)
(1.01549 0.00880078 0)
(1.00804 0.000976657 0)
(1.00424 -0.008387 0)
(0.995051 -0.0110052 0)
(1.0058 -0.0047404 0)
(1.01101 -0.00431295 0)
(1.01136 0.00136177 0)
(1.01396 0.00620443 0)
(1.01418 0.00878371 0)
(1.01512 0.0105036 0)
(1.00796 0.000791308 0)
(1.00342 0.00842589 0)
(1.00177 -0.00371351 0)
(0.995484 0.00465934 0)
(0.992357 -0.000794392 0)
(0.989203 -0.00294019 0)
(1.00686 0.00142288 0)
(0.990845 -0.00711071 0)
(1.01295 0.00262037 0)
(1.00799 0.00388053 0)
(1.00902 0.00880686 0)
(1.00903 0.0011423 0)
(1.00389 -0.00825531 0)
(0.995641 -0.0109534 0)
(1.00102 -0.00498751 0)
(1.00586 -0.00435425 0)
(1.0052 0.00122712 0)
(1.00847 0.00617409 0)
(1.00972 0.00871245 0)
(1.01162 0.0106261 0)
(1.00621 0.00113604 0)
(1.00221 0.00840764 0)
(1.00137 -0.00305419 0)
(0.995412 0.00450658 0)
(0.992625 0.000386255 0)
(0.995637 -0.00290124 0)
(1.00237 0.00138319 0)
(0.994335 -0.00710433 0)
(1.00329 0.00247999 0)
(1.00294 0.0038863 0)
(1.00486 0.00874019 0)
(1.00895 0.00123759 0)
(1.00496 -0.00812712 0)
(0.996041 -0.0108245 0)
(0.998281 -0.00515569 0)
(1.00154 -0.00435562 0)
(0.999859 0.00109826 0)
(1.00294 0.00611938 0)
(1.00508 0.00859056 0)
(1.00791 0.0106688 0)
(1.00425 0.00144791 0)
(1.00102 0.00829916 0)
(1.00093 -0.00236001 0)
(0.995529 0.00430773 0)
(0.992974 0.00152843 0)
(0.9987 -0.0028707 0)
(1.00061 0.00135307 0)
(0.995978 -0.00704352 0)
(0.997909 0.00240108 0)
(0.999123 0.00384861 0)
(1.00238 0.00860635 0)
(1.00876 0.00127368 0)
(1.00606 -0.00800744 0)
(0.996467 -0.0106295 0)
(0.996675 -0.00525388 0)
(0.998378 -0.00430412 0)
(0.995614 0.000996316 0)
(0.99822 0.0060533 0)
(1.00099 0.00842487 0)
(1.00465 0.0106263 0)
(1.00251 0.00172131 0)
(1.00005 0.00810158 0)
(1.00055 -0.00164557 0)
(0.995777 0.00406398 0)
(0.993376 0.00261308 0)
(0.999967 -0.00284468 0)
(1.00002 0.0013244 0)
(0.996697 -0.0069432 0)
(0.995207 0.00235846 0)
(0.99694 0.00378684 0)
(1.00113 0.00842133 0)
(1.00866 0.00127248 0)
(1.00676 -0.0078937 0)
(0.996785 -0.0103843 0)
(0.99572 -0.00529664 0)
(0.996266 -0.00420363 0)
(0.992603 0.000927654 0)
(0.994746 0.00597822 0)
(0.99795 0.00822641 0)
(1.0022 0.0104998 0)
(1.00123 0.00197201 0)
(0.999398 0.00783114 0)
(1.00029 -0.000924487 0)
(0.996099 0.0038037 0)
(0.993788 0.00357678 0)
(1.00044 -0.00281947 0)
(0.999787 0.00129389 0)
(0.996947 -0.00681668 0)
(0.994017 0.00233077 0)
(0.99603 0.00371282 0)
(1.00067 0.00820235 0)
(1.00862 0.00125531 0)
(1.00704 -0.00778159 0)
(0.996929 -0.0101042 0)
(0.995144 -0.00529953 0)
(0.994985 -0.00406875 0)
(0.990747 0.000884512 0)
(0.992569 0.00589679 0)
(0.996054 0.00800669 0)
(1.00062 0.0102973 0)
(1.00046 0.00221406 0)
(0.999048 0.00750589 0)
(1.00015 -0.000209883 0)
(0.996461 0.00356056 0)
(0.994187 0.00440319 0)
(1.00063 -0.00279254 0)
(0.99964 0.00126015 0)
(0.996967 -0.00667333 0)
(0.993597 0.00230342 0)
(0.995863 0.00363336 0)
(1.00063 0.00796221 0)
(1.00859 0.00123634 0)
(1.00704 -0.00766755 0)
(0.996935 -0.00979963 0)
(0.994795 -0.00527801 0)
(0.994293 -0.0039108 0)
(0.989801 0.000861661 0)
(0.991467 0.00580455 0)
(0.995126 0.00777948 0)
(0.999781 0.010034 0)
(1.00012 0.00245486 0)
(0.99894 0.007148 0)
(1.0001 0.000476007 0)
(0.996841 0.00336985 0)
(0.994564 0.0050776 0)
(1.00072 -0.00276281 0)
(0.999512 0.00122316 0)
(0.996898 -0.00651821 0)
(0.99353 0.00226848 0)
(0.996026 0.00355203 0)
(1.00076 0.00770778 0)
(1.00854 0.00122246 0)
(1.00689 -0.00754905 0)
(0.996882 -0.00947814 0)
(0.994597 -0.00524059 0)
(0.993981 -0.00374471 0)
(0.989466 0.000855495 0)
(0.991101 0.00569079 0)
(0.994857 0.00755763 0)
(0.999429 0.00972908 0)
(1.00003 0.00270034 0)
(0.998982 0.00677945 0)
(1.0001 0.00114019 0)
(0.997219 0.0032592 0)
(0.994922 0.00560017 0)
(1.00079 -0.00272996 0)
(0.9994 0.00118313 0)
(0.996826 -0.00635327 0)
(0.993607 0.00222249 0)
(0.996278 0.00347094 0)
(1.00091 0.00744172 0)
(1.00844 0.00121874 0)
(1.00668 -0.00742588 0)
(0.996833 -0.00914535 0)
(0.994509 -0.00518959 0)
(0.993899 -0.00358552 0)
(0.989483 0.000857873 0)
(0.991154 0.00555418 0)
(0.994949 0.00734565 0)
(0.999336 0.00939565 0)
(1.00007 0.00295467 0)
(0.999088 0.00642652 0)
(1.0001 0.00176662 0)
(0.997578 0.00323521 0)
(0.995262 0.00598448 0)
(1.00083 -0.00269382 0)
(0.999306 0.00113939 0)
(0.996786 -0.00617917 0)
(0.99374 0.00216475 0)
(0.996514 0.0033916 0)
(1.00102 0.00716515 0)
(1.00829 0.00122512 0)
(1.00646 -0.00729833 0)
(0.996816 -0.00880455 0)
(0.994503 -0.00512823 0)
(0.99395 -0.00343599 0)
(0.98967 0.000869557 0)
(0.991393 0.00539462 0)
(0.99518 0.00714741 0)
(0.999334 0.00904166 0)
(1.00012 0.00320822 0)
(0.999194 0.00610968 0)
(1.00008 0.00232689 0)
(0.997903 0.00328657 0)
(0.995587 0.0062575 0)
(1.00086 -0.00265424 0)
(0.99923 0.001091 0)
(0.996786 -0.00599623 0)
(0.993894 0.00209604 0)
(0.996706 0.00331535 0)
(1.00106 0.0068786 0)
(1.0081 0.00123779 0)
(1.00623 -0.00716609 0)
(0.996835 -0.00846016 0)
(0.994559 -0.00505397 0)
(0.994078 -0.00330053 0)
(0.989927 0.000893384 0)
(0.991687 0.00521316 0)
(0.995428 0.00696016 0)
(0.999329 0.0086812 0)
(1.00013 0.00344516 0)
(0.99927 0.00583937 0)
(1.00004 0.00283171 0)
(0.998189 0.00340017 0)
(0.995898 0.00645172 0)
(1.00088 -0.0026112 0)
(0.999167 0.00103742 0)
(0.996815 -0.00580445 0)
(0.994057 0.00201723 0)
(0.996858 0.00324382 0)
(1.00105 0.00658145 0)
(1.00786 0.00125592 0)
(1.006 -0.00702954 0)
(0.996881 -0.00811646 0)
(0.994656 -0.00496288 0)
(0.994249 -0.00318541 0)
(0.990206 0.000930446 0)
(0.991975 0.00501364 0)
(0.995643 0.00677785 0)
(0.999288 0.00832797 0)
(1.00009 0.00365902 0)
(0.999311 0.00562981 0)
(0.999965 0.00327864 0)
(0.998437 0.00354949 0)
(0.996198 0.0065877 0)
(1.00089 -0.00256464 0)
(0.999118 0.000978155 0)
(0.996858 -0.00560353 0)
(0.994226 0.00192837 0)
(0.996983 0.00317805 0)
(1.00101 0.00627549 0)
(1.00759 0.00127614 0)
(1.00578 -0.00688802 0)
(0.996941 -0.00777706 0)
(0.994777 -0.00485417 0)
(0.994443 -0.00308803 0)
(0.990491 0.00097788 0)
(0.99224 0.0048054 0)
(0.995822 0.0065924 0)
(0.999211 0.0079952 0)
(1.00001 0.00384174 0)
(0.999325 0.00547197 0)
(0.999879 0.00367076 0)
(0.998653 0.00371395 0)
(0.996493 0.00667544 0)
(1.00089 -0.0025145 0)
(0.999082 0.000912763 0)
(0.996905 -0.00539313 0)
(0.994402 0.00183097 0)
(0.997091 0.00311735 0)
(1.00096 0.0059636 0)
(1.0073 0.00129691 0)
(1.00556 -0.00673838 0)
(0.997006 -0.00744558 0)
(0.994913 -0.00472461 0)
(0.994649 -0.00300526 0)
(0.990777 0.0010319 0)
(0.992483 0.00459808 0)
(0.995977 0.00639818 0)
(0.999112 0.00769008 0)
(0.999912 0.00399437 0)
(0.999327 0.00534365 0)
(0.999793 0.00402194 0)
(0.998845 0.00388599 0)
(0.99679 0.00672052 0)
(1.00089 -0.0024609 0)
(0.999059 0.000841668 0)
(0.99695 -0.00517414 0)
(0.994586 0.00172623 0)
(0.997187 0.00306127 0)
(1.00091 0.00564577 0)
(1.00699 0.00131669 0)
(1.00535 -0.00657999 0)
(0.99707 -0.00712447 0)
(0.995058 -0.00457513 0)
(0.994858 -0.00293546 0)
(0.991067 0.00109125 0)
(0.992711 0.00439736 0)
(0.996124 0.00619091 0)
(0.999005 0.00741484 0)
(0.999812 0.00412439 0)
(0.999328 0.00524083 0)
(0.999717 0.00434781 0)
(0.999017 0.00406032 0)
(0.997092 0.00672261 0)
(1.00087 -0.00240387 0)
(0.999048 0.000765086 0)
(0.99699 -0.00494781 0)
(0.994779 0.00161388 0)
(0.997273 0.0030081 0)
(1.00088 0.00532551 0)
(1.00668 0.00133087 0)
(1.00514 -0.00641027 0)
(0.997134 -0.00681809 0)
(0.995206 -0.00440673 0)
(0.995069 -0.00287849 0)
(0.991362 0.00114863 0)
(0.992926 0.00421183 0)
(0.996273 0.00596328 0)
(0.998899 0.00716828 0)
(0.999716 0.00423835 0)
(0.999336 0.00514623 0)
(0.999656 0.00464862 0)
(0.99917 0.00424207 0)
(0.997403 0.00668612 0)
(1.00085 -0.00234345 0)
(0.999049 0.000682965 0)
(0.997026 -0.00471406 0)
(0.994981 0.00149579 0)
(0.997354 0.00295661 0)
(1.00085 0.00500576 0)
(1.00635 0.00133769 0)
(1.00493 -0.00622577 0)
(0.997199 -0.00652746 0)
(0.995358 -0.00421862 0)
(0.99528 -0.00283054 0)
(0.991662 0.00119492 0)
(0.993132 0.00404801 0)
(0.996427 0.00571548 0)
(0.998801 0.00694367 0)
(0.999625 0.0043468 0)
(0.999354 0.00504999 0)
(0.999615 0.00491235 0)
(0.999306 0.00443905 0)
(0.997722 0.00662128 0)
(1.00082 -0.00227979 0)
(0.999058 0.000595782 0)
(0.997061 -0.00447407 0)
(0.99519 0.0013732 0)
(0.99743 0.00290556 0)
(1.00083 0.00468811 0)
(1.00602 0.00133539 0)
(1.00473 -0.00602722 0)
(0.997267 -0.00624916 0)
(0.995512 -0.00401783 0)
(0.995491 -0.0027789 0)
(0.991968 0.00122804 0)
(0.993328 0.00390715 0)
(0.996588 0.00545571 0)
(0.998717 0.00673351 0)
(0.999539 0.0044559 0)
(0.999384 0.00496603 0)
(0.999596 0.00513396 0)
(0.999423 0.00465269 0)
(0.998042 0.00653796 0)
(1.0008 -0.00221314 0)
(0.99907 0.000504462 0)
(0.997097 -0.00422972 0)
(0.995403 0.0012481 0)
(0.997505 0.00285236 0)
(1.00081 0.00437635 0)
(1.0057 0.00132127 0)
(1.00452 -0.00581444 0)
(0.99734 -0.00598309 0)
(0.995665 -0.00380897 0)
(0.995705 -0.00272304 0)
(0.99228 0.0012442 0)
(0.993517 0.003793 0)
(0.996754 0.00519034 0)
(0.998649 0.00653155 0)
(0.999455 0.00457003 0)
(0.999423 0.00489409 0)
(0.999597 0.00530595 0)
(0.999524 0.00487555 0)
(0.998358 0.0064428 0)
(1.00077 -0.00214368 0)
(0.999083 0.000410006 0)
(0.997137 -0.00398405 0)
(0.995617 0.00112239 0)
(0.997582 0.00279552 0)
(1.00079 0.00407298 0)
(1.00538 0.00129496 0)
(1.00431 -0.00558861 0)
(0.99742 -0.0057293 0)
(0.995817 -0.00359351 0)
(0.995922 -0.00266048 0)
(0.992598 0.00124423 0)
(0.993702 0.00370464 0)
(0.99692 0.00492526 0)
(0.998604 0.00632941 0)
(0.999371 0.00469253 0)
(0.999469 0.00483028 0)
(0.999618 0.0054304 0)
(0.999609 0.0051057 0)
(0.998663 0.00634319 0)
(1.00074 -0.00207123 0)
(0.999093 0.000311904 0)
(0.997183 -0.00373734 0)
(0.995828 0.000999209 0)
(0.997662 0.00273309 0)
(1.00076 0.00378004 0)
(1.00507 0.00125809 0)
(1.00409 -0.00535181 0)
(0.997507 -0.00548545 0)
(0.995966 -0.00337443 0)
(0.996142 -0.00258674 0)
(0.992921 0.00122929 0)
(0.993884 0.00363645 0)
(0.997086 0.00466943 0)
(0.998586 0.00612243 0)
(0.999288 0.00482149 0)
(0.99952 0.00477535 0)
(0.999661 0.00550422 0)
(0.999682 0.00533629 0)
(0.998947 0.00625405 0)
(1.00072 -0.00199674 0)
(0.999099 0.000212918 0)
(0.997235 -0.00349073 0)
(0.996035 0.000879375 0)
(0.997747 0.00266633 0)
(1.00073 0.00349595 0)
(1.00477 0.00121152 0)
(1.00387 -0.00510836 0)
(0.997599 -0.0052462 0)
(0.996111 -0.00315454 0)
(0.996365 -0.00250423 0)
(0.99325 0.00119844 0)
(0.994066 0.00358596 0)
(0.997249 0.00442959 0)
(0.998597 0.00591057 0)
(0.999207 0.00495641 0)
(0.999569 0.00473844 0)
(0.999726 0.00552201 0)
(0.999747 0.00555188 0)
(0.999201 0.00620219 0)
(1.0007 -0.00191964 0)
(0.999103 0.000113511 0)
(0.997292 -0.00324964 0)
(0.996238 0.000761844 0)
(0.997836 0.00259554 0)
(1.0007 0.00322069 0)
(1.00447 0.00115416 0)
(1.00366 -0.00486198 0)
(0.997696 -0.00501219 0)
(0.996253 -0.00293663 0)
(0.996588 -0.0024107 0)
(0.993586 0.00115659 0)
(0.994248 0.00355068 0)
(0.997407 0.00421533 0)
(0.998639 0.00568674 0)
(0.999133 0.0050854 0)
(0.999612 0.00473002 0)
(0.999812 0.00548977 0)
(0.999813 0.00572997 0)
(0.999418 0.0062091 0)
(1.00068 -0.00184016 0)
(0.999105 1.33008e-05 0)
(0.997354 -0.0030158 0)
(0.996437 0.000649875 0)
(0.997929 0.00251702 0)
(1.00066 0.00295963 0)
(1.00418 0.00109107 0)
(1.00344 -0.00461148 0)
(0.997796 -0.00478805 0)
(0.996392 -0.00272085 0)
(0.996811 -0.00230605 0)
(0.99393 0.00110334 0)
(0.994432 0.00353023 0)
(0.997559 0.00403335 0)
(0.998713 0.00545172 0)
(0.999072 0.00519636 0)
(0.999645 0.00475436 0)
(0.999915 0.00542343 0)
(0.999892 0.00584349 0)
(0.999596 0.00626671 0)
(1.00067 -0.00175963 0)
(0.999108 -8.40702e-05 0)
(0.997419 -0.00278953 0)
(0.996631 0.00054221 0)
(0.998023 0.00243484 0)
(1.00062 0.00270669 0)
(1.0039 0.00102373 0)
(1.00322 -0.00435861 0)
(0.997898 -0.00456876 0)
(0.99653 -0.0025085 0)
(0.997031 -0.00218729 0)
(0.994282 0.00103616 0)
(0.994619 0.00351826 0)
(0.997701 0.00388723 0)
(0.998814 0.00521307 0)
(0.99903 0.00528052 0)
(0.999664 0.00480705 0)
(1.00003 0.00534819 0)
(0.999991 0.00588793 0)
(0.999745 0.00634232 0)
(1.00065 -0.00167755 0)
(0.999112 -0.000178041 0)
(0.997486 -0.00257085 0)
(0.996823 0.000437701 0)
(0.998118 0.00235336 0)
(1.00058 0.00245761 0)
(1.00363 0.000949336 0)
(1.003 -0.00410155 0)
(0.998003 -0.0043576 0)
(0.996666 -0.00230021 0)
(0.997245 -0.00204967 0)
(0.994644 0.000960198 0)
(0.994812 0.00351203 0)
(0.997834 0.00378076 0)
(0.99894 0.00496995 0)
(0.999013 0.00532532 0)
(0.999671 0.00487511 0)
(1.00014 0.00528176 0)
(1.00011 0.0058813 0)
(0.999881 0.00639822 0)
(1.00063 -0.00159362 0)
(0.999119 -0.000269217 0)
(0.997555 -0.00236083 0)
(0.997012 0.000335296 0)
(0.998211 0.00227226 0)
(1.00054 0.00221895 0)
(1.00336 0.000871699 0)
(1.00278 -0.00383777 0)
(0.998108 -0.00415683 0)
(0.996804 -0.0021022 0)
(0.997451 -0.00189059 0)
(0.995013 0.000883537 0)
(0.995014 0.00350245 0)
(0.997954 0.00371702 0)
(0.999082 0.00473079 0)
(0.999024 0.00532794 0)
(0.999671 0.00494488 0)
(1.00025 0.00522155 0)
(1.00025 0.00583934 0)
(1.00002 0.00641055 0)
(1.00062 -0.00150894 0)
(0.999129 -0.00035575 0)
(0.997626 -0.0021588 0)
(0.997198 0.000230832 0)
(0.998302 0.00219415 0)
(1.0005 0.00199371 0)
(1.00311 0.000786078 0)
(1.00257 -0.00356602 0)
(0.998213 -0.00396261 0)
(0.996944 -0.00191247 0)
(0.997648 -0.00170817 0)
(0.995387 0.000818086 0)
(0.995228 0.00348118 0)
(0.99806 0.00368454 0)
(0.999235 0.0045031 0)
(0.999064 0.00528714 0)
(0.999666 0.00500734 0)
(1.00035 0.00516304 0)
(1.0004 0.00577684 0)
(1.00016 0.00638297 0)
(1.0006 -0.00142399 0)
(0.999141 -0.000437519 0)
(0.997698 -0.00196334 0)
(0.997382 0.000120967 0)
(0.99839 0.00211753 0)
(1.00045 0.00178513 0)
(1.00287 0.000687312 0)
(1.00235 -0.00328616 0)
(0.998317 -0.00376375 0)
(0.99709 -0.00173633 0)
(0.997836 -0.00150669 0)
(0.995764 0.000770566 0)
(0.995453 0.00344339 0)
(0.998153 0.00366933 0)
(0.999392 0.00429767 0)
(0.999133 0.00521326 0)
(0.99966 0.00506387 0)
(1.00044 0.00510822 0)
(1.00056 0.00569889 0)
(1.00032 0.00632969 0)
(1.00058 -0.00133707 0)
(0.999157 -0.000518106 0)
(0.997768 -0.00177254 0)
(0.997565 6.07867e-06 0)
(0.998478 0.00203857 0)
(1.0004 0.00159924 0)
(1.00263 0.000572475 0)
(1.00214 -0.00300034 0)
(0.998417 -0.00355322 0)
(0.997242 -0.00158756 0)
(0.998018 -0.00128984 0)
(0.996138 0.000741869 0)
(0.99569 0.00338231 0)
(0.998236 0.00366229 0)
(0.999549 0.00411801 0)
(0.99923 0.00511346 0)
(0.999656 0.00511468 0)
(1.00052 0.00506175 0)
(1.00073 0.00560085 0)
(1.00048 0.00625578 0)
(1.00055 -0.00124966 0)
(0.999177 -0.000595815 0)
(0.997838 -0.00158638 0)
(0.997744 -0.000114188 0)
(0.998567 0.00195199 0)
(1.00034 0.0014425 0)
(1.00241 0.00044723 0)
(1.00194 -0.00271692 0)
(0.998511 -0.00332754 0)
(0.9974 -0.00145198 0)
(0.998194 -0.00106744 0)
(0.996506 0.000737853 0)
(0.995939 0.00330345 0)
(0.99831 0.00365183 0)
(0.999701 0.00395274 0)
(0.999355 0.00498183 0)
(0.999658 0.00515325 0)
(1.00058 0.00503205 0)
(1.0009 0.00548597 0)
(1.00066 0.00615859 0)
(1.00053 -0.00116196 0)
(0.9992 -0.000671492 0)
(0.997906 -0.00140408 0)
(0.99792 -0.000234627 0)
(0.998657 0.00184772 0)
(1.00028 0.00132555 0)
(1.0022 0.000319138 0)
(1.00175 -0.0024454 0)
(0.998598 -0.00306908 0)
(0.997562 -0.0013261 0)
(0.998366 -0.000855373 0)
(0.996866 0.000758844 0)
(0.996196 0.00321227 0)
(0.998378 0.00363227 0)
(0.999845 0.00380763 0)
(0.999507 0.00482862 0)
(0.999674 0.00517562 0)
(1.00062 0.00502365 0)
(1.00106 0.00536226 0)
(1.00086 0.00603189 0)
(1.00051 -0.00107275 0)
(0.999228 -0.000746559 0)
(0.997972 -0.00122536 0)
(0.998089 -0.000348344 0)
(0.998752 0.00172203 0)
(1.00021 0.00124392 0)
(1.00201 0.000190931 0)
(1.00157 -0.00219096 0)
(0.998677 -0.00277725 0)
(0.997726 -0.00120281 0)
(0.998537 -0.00066309 0)
(0.997215 0.000793257 0)
(0.996459 0.00311611 0)
(0.998442 0.00360419 0)
(0.999979 0.00368131 0)
(0.999682 0.00465635 0)
(0.999709 0.00516842 0)
(1.00064 0.00503337 0)
(1.00121 0.00524509 0)
(1.00106 0.00588102 0)
(1.00048 -0.000983074 0)
(0.999259 -0.000819779 0)
(0.998037 -0.00105334 0)
(0.998252 -0.000454161 0)
(0.998851 0.00156672 0)
(1.00014 0.00119132 0)
(1.00181 7.61753e-05 0)
(1.0014 -0.00196703 0)
(0.998751 -0.00246191 0)
(0.997885 -0.00106886 0)
(0.998706 -0.000497284 0)
(0.997554 0.000826781 0)
(0.996726 0.00302023 0)
(0.998504 0.00357211 0)
(1.0001 0.00357208 0)
(0.999877 0.0044716 0)
(0.999772 0.00512432 0)
(1.00065 0.00505169 0)
(1.00134 0.00514712 0)
(1.00128 0.00571621 0)
(1.00045 -0.000894133 0)
(0.999296 -0.000889504 0)
(0.998101 -0.000888894 0)
(0.998404 -0.000543741 0)
(0.998958 0.00137579 0)
(1.00006 0.00116099 0)
(1.00163 -1.45856e-05 0)
(1.00125 -0.00176969 0)
(0.998821 -0.00213646 0)
(0.998038 -0.000923429 0)
(0.99887 -0.000355057 0)
(0.997884 0.000853471 0)
(0.996999 0.00292719 0)
(0.998564 0.00354009 0)
(1.0002 0.00348116 0)
(1.00008 0.004283 0)
(0.999864 0.00504445 0)
(1.00065 0.00506522 0)
(1.00144 0.00507158 0)
(1.00148 0.00554873 0)
(1.00043 -0.000804629 0)
(0.999337 -0.000957569 0)
(0.998164 -0.00073505 0)
(0.998544 -0.000611404 0)
(0.999073 0.00115659 0)
(0.99999 0.00113998 0)
(1.00145 -6.64685e-05 0)
(1.00113 -0.00159661 0)
(0.998889 -0.00181368 0)
(0.99818 -0.000753036 0)
(0.999027 -0.000225949 0)
(0.998204 0.000867331 0)
(0.997277 0.00283593 0)
(0.998625 0.00351334 0)
(1.00029 0.00341149 0)
(1.0003 0.00409407 0)
(0.999989 0.00493074 0)
(1.00065 0.00506377 0)
(1.00151 0.00501255 0)
(1.00168 0.00538487 0)
(1.0004 -0.000716083 0)
(0.999382 -0.00102101 0)
(0.998229 -0.000596892 0)
(0.998669 -0.000649414 0)
(0.999195 0.000915343 0)
(0.999927 0.00111617 0)
(1.00127 -7.45597e-05 0)
(1.00102 -0.00144326 0)
(0.99896 -0.00150197 0)
(0.99831 -0.000559677 0)
(0.999173 -0.000101816 0)
(0.998515 0.000866799 0)
(0.997565 0.00273727 0)
(0.998691 0.00348807 0)
(1.00035 0.00336771 0)
(1.00051 0.00391428 0)
(1.00014 0.00478754 0)
(1.00066 0.00504554 0)
(1.00155 0.00496668 0)
(1.00185 0.00522941 0)
(1.00037 -0.00062983 0)
(0.999432 -0.00107564 0)
(0.998297 -0.000478847 0)
(0.998777 -0.000651729 0)
(0.999324 0.000662043 0)
(0.999878 0.00107251 0)
(1.0011 -4.50893e-05 0)
(1.00093 -0.00130425 0)
(0.999037 -0.00121267 0)
(0.998428 -0.000356794 0)
(0.999302 2.20127e-05 0)
(0.998815 0.000861338 0)
(0.997862 0.00262661 0)
(0.998768 0.00345212 0)
(1.0004 0.00334569 0)
(1.00071 0.00375388 0)
(1.00033 0.00461562 0)
(1.00069 0.0050026 0)
(1.00156 0.00493216 0)
(1.00198 0.00509298 0)
(1.00034 -0.000547208 0)
(0.999485 -0.00112011 0)
(0.99837 -0.000384872 0)
(0.998868 -0.000612629 0)
(0.999455 0.000407213 0)
(0.999846 0.00100682 0)
(1.00093 2.59631e-05 0)
(1.00085 -0.00117711 0)
(0.999123 -0.000962435 0)
(0.998537 -0.000147573 0)
(0.999414 0.000163283 0)
(0.999099 0.000861713 0)
(0.998169 0.00250504 0)
(0.99886 0.00339998 0)
(1.00043 0.00333791 0)
(1.0009 0.00362454 0)
(1.00054 0.00442662 0)
(1.00075 0.00492479 0)
(1.00156 0.00489942 0)
(1.00208 0.00498482 0)
(1.00031 -0.000468313 0)
(0.999541 -0.00115218 0)
(0.99845 -0.000317933 0)
(0.998942 -0.000533241 0)
(0.999584 0.000169615 0)
(0.999839 0.000912185 0)
(1.00078 0.000127606 0)
(1.00077 -0.00104281 0)
(0.99922 -0.000764368 0)
(0.998642 6.0659e-05 0)
(0.999508 0.000327547 0)
(0.999361 0.0008739 0)
(0.998481 0.0023733 0)
(0.998973 0.00332834 0)
(1.00045 0.00333133 0)
(1.00106 0.00352377 0)
(1.00076 0.00423457 0)
(1.00084 0.00480975 0)
(1.00156 0.00485179 0)
(1.00214 0.00490041 0)
(1.00028 -0.000394912 0)
(0.999598 -0.00117002 0)
(0.998541 -0.00027746 0)
(0.999001 -0.000427119 0)
(0.999708 -3.10989e-05 0)
(0.999857 0.000785166 0)
(1.00063 0.00024384 0)
(1.00071 -0.000894428 0)
(0.999328 -0.000613413 0)
(0.998753 0.00024621 0)
(0.999584 0.000503574 0)
(0.999598 0.000907138 0)
(0.998795 0.00224251 0)
(0.999109 0.00323685 0)
(1.00047 0.00331834 0)
(1.00119 0.00344414 0)
(1.00099 0.00405076 0)
(1.00097 0.00466934 0)
(1.00157 0.00478308 0)
(1.00217 0.0048254 0)
(1.00025 -0.000329023 0)
(0.999655 -0.00116971 0)
(0.998644 -0.00026341 0)
(0.999047 -0.000303483 0)
(0.99982 -0.000181375 0)
(0.999902 0.000629127 0)
(1.00051 0.000358042 0)
(1.00064 -0.000722029 0)
(0.999445 -0.000490893 0)
(0.998875 0.000387369 0)
(0.99965 0.000677109 0)
(0.999805 0.000965674 0)
(0.999103 0.00212459 0)
(0.999268 0.00312519 0)
(1.00049 0.00329079 0)
(1.0013 0.00337826 0)
(1.00121 0.00387872 0)
(1.00111 0.00451307 0)
(1.0016 0.00469562 0)
(1.00218 0.00474297 0)
(1.00023 -0.000271146 0)
(0.999711 -0.00114966 0)
(0.998758 -0.000275323 0)
(0.999086 -0.000176005 0)
(0.999916 -0.000268648 0)
(0.99997 0.000453566 0)
(1.00041 0.000445807 0)
(1.00057 -0.000524437 0)
(0.999563 -0.000380917 0)
(0.999011 0.000483761 0)
(0.999712 0.000833979 0)
(0.999985 0.00104744 0)
(0.999399 0.00202803 0)
(0.999447 0.00300445 0)
(1.00052 0.00324639 0)
(1.00139 0.00332049 0)
(1.00142 0.00371788 0)
(1.00129 0.00433992 0)
(1.00165 0.00459245 0)
(1.00219 0.0046454 0)
(1.0002 -0.000222502 0)
(0.999763 -0.00110935 0)
(0.998885 -0.000308636 0)
(0.999124 -5.27965e-05 0)
(0.999994 -0.000287627 0)
(1.00006 0.000274674 0)
(1.00035 0.000495932 0)
(1.0005 -0.000314369 0)
(0.999674 -0.00026521 0)
(0.999161 0.000545824 0)
(0.999781 0.00096457 0)
(1.00014 0.00113997 0)
(0.999678 0.00195516 0)
(0.999642 0.00288536 0)
(1.00057 0.00319065 0)
(1.00146 0.00326933 0)
(1.00161 0.00357497 0)
(1.00148 0.00415147 0)
(1.00171 0.00447358 0)
(1.00221 0.00453774 0)
(1.00018 -0.000183448 0)
(0.999809 -0.00104821 0)
(0.999021 -0.00035673 0)
(0.999166 5.66172e-05 0)
(1.00005 -0.000246543 0)
(1.00015 0.000115528 0)
(1.00032 0.000496793 0)
(1.00044 -0.000109917 0)
(0.999774 -0.000129599 0)
(0.999319 0.000590182 0)
(0.999861 0.00106133 0)
(1.00028 0.00123063 0)
(0.999939 0.00190474 0)
(0.999849 0.00277031 0)
(1.00063 0.00312481 0)
(1.00152 0.00321756 0)
(1.00179 0.00345191 0)
(1.00169 0.00395565 0)
(1.00181 0.00433064 0)
(1.00223 0.00442639 0)
(1.00016 -0.000154709 0)
(0.999849 -0.000965635 0)
(0.999164 -0.000412498 0)
(0.999219 0.000135075 0)
(1.00009 -0.000167771 0)
(1.00024 -8.95461e-06 0)
(1.00034 0.000455722 0)
(1.0004 7.20386e-05 0)
(0.999862 2.82436e-05 0)
(0.99948 0.000636941 0)
(0.999954 0.00112351 0)
(1.0004 0.00131252 0)
(1.00018 0.00187346 0)
(1.00006 0.00266389 0)
(1.00072 0.0030527 0)
(1.00157 0.00316289 0)
(1.00193 0.00334593 0)
(1.0019 0.00376777 0)
(1.00193 0.00416089 0)
(1.00226 0.00431172 0)
(1.00015 -0.000134377 0)
(0.99988 -0.000867487 0)
(0.99931 -0.000466783 0)
(0.999286 0.0001783 0)
(1.00011 -6.66583e-05 0)
(1.00033 -8.74555e-05 0)
(1.00038 0.000385797 0)
(1.00038 0.000224111 0)
(0.99994 0.000202111 0)
(0.999633 0.000696261 0)
(1.00006 0.00116385 0)
(1.00052 0.00137169 0)
(1.0004 0.00184961 0)
(1.00028 0.00256564 0)
(1.00081 0.00297644 0)
(1.00163 0.00310756 0)
(1.00206 0.00325391 0)
(1.00209 0.00359873 0)
(1.00209 0.003973 0)
(1.0023 0.00418568 0)
(1.00013 -0.000121148 0)
(0.999902 -0.000759554 0)
(0.999452 -0.000508132 0)
(0.999367 0.000189913 0)
(1.00013 4.69494e-05 0)
(1.0004 -0.000102221 0)
(1.00045 0.00030537 0)
(1.00039 0.000325334 0)
(1.00001 0.000374177 0)
(0.999776 0.0007744 0)
(1.00016 0.0012026 0)
(1.00064 0.00141347 0)
(1.00061 0.00182581 0)
(1.0005 0.00247326 0)
(1.00093 0.00289518 0)
(1.00169 0.00304814 0)
(1.00216 0.00317069 0)
(1.00227 0.00344893 0)
(1.00226 0.00377776 0)
(1.00237 0.00403871 0)
(1.00012 -0.000113801 0)
(0.999916 -0.000646602 0)
(0.999587 -0.000525954 0)
(0.999462 0.000171764 0)
(1.00014 0.000157528 0)
(1.00045 -6.59641e-05 0)
(1.00053 0.000242594 0)
(1.00044 0.000372805 0)
(1.00009 0.000521678 0)
(0.999907 0.000867166 0)
(1.00027 0.00124023 0)
(1.00075 0.00144863 0)
(1.00081 0.00179845 0)
(1.00072 0.00238155 0)
(1.00105 0.00281037 0)
(1.00175 0.00298427 0)
(1.00225 0.00309394 0)
(1.00243 0.00332183 0)
(1.00243 0.00358912 0)
(1.00246 0.00386862 0)
(1.00011 -0.000109224 0)
(0.999923 -0.00053607 0)
(0.999709 -0.000516794 0)
(0.999569 0.000132961 0)
(1.00016 0.000250118 0)
(1.00049 -3.85565e-07 0)
(1.0006 0.000207099 0)
(1.00051 0.000386164 0)
(1.00019 0.000628956 0)
(1.00003 0.000963579 0)
(1.00037 0.00128397 0)
(1.00086 0.00147922 0)
(1.00098 0.00177375 0)
(1.00094 0.00228634 0)
(1.00119 0.00271695 0)
(1.00182 0.00291443 0)
(1.00233 0.00301467 0)
(1.00256 0.00321303 0)
(1.0026 0.00342033 0)
(1.00258 0.00368105 0)
(1.00011 -0.000104991 0)
(0.999926 -0.000433368 0)
(0.999816 -0.000478473 0)
(0.999684 8.57935e-05 0)
(1.00018 0.000311443 0)
(1.00051 8.81819e-05 0)
(1.00067 0.000209048 0)
(1.0006 0.000386294 0)
(1.0003 0.000691835 0)
(1.00015 0.00104577 0)
(1.00046 0.00133915 0)
(1.00096 0.00150843 0)
(1.00114 0.00175701 0)
(1.00115 0.00219648 0)
(1.00135 0.0026127 0)
(1.0019 0.00283824 0)
(1.00241 0.0029294 0)
(1.00267 0.00310762 0)
(1.00274 0.00327653 0)
(1.00272 0.003487 0)
(1.0001 -9.92656e-05 0)
(0.999926 -0.000342737 0)
(0.999906 -0.00041536 0)
(0.999797 4.36984e-05 0)
(1.00022 0.000340496 0)
(1.00052 0.00018472 0)
(1.00073 0.000248512 0)
(1.0007 0.000389415 0)
(1.00042 0.000721167 0)
(1.00027 0.00110269 0)
(1.00054 0.00139214 0)
(1.00104 0.00154311 0)
(1.00128 0.00174279 0)
(1.00134 0.00211568 0)
(1.00151 0.00250068 0)
(1.00198 0.00275158 0)
(1.00248 0.00284329 0)
(1.00277 0.00299646 0)
(1.00286 0.00315249 0)
(1.00286 0.00330611 0)
(1.0001 -9.10999e-05 0)
(0.999927 -0.00026549 0)
(0.99998 -0.000339361 0)
(0.999906 1.62785e-05 0)
(1.00027 0.000348132 0)
(1.00054 0.000270712 0)
(1.00077 0.000313586 0)
(1.00079 0.000409369 0)
(1.00055 0.000732706 0)
(1.00041 0.00113408 0)
(1.00063 0.00143247 0)
(1.00111 0.00158415 0)
(1.0014 0.00173744 0)
(1.00152 0.00204518 0)
(1.00168 0.00238756 0)
(1.00208 0.00265007 0)
(1.00255 0.00275504 0)
(1.00287 0.00287916 0)
(1.00296 0.00303038 0)
(1.00297 0.00314913 0)
(1.0001 -8.09213e-05 0)
(0.999928 -0.000199938 0)
(1.00004 -0.000259652 0)
(1.00001 8.45173e-06 0)
(1.00033 0.000342875 0)
(1.00056 0.000340161 0)
(1.0008 0.000390525 0)
(1.00087 0.000454186 0)
(1.00069 0.000741494 0)
(1.00055 0.00114039 0)
(1.00072 0.00145466 0)
(1.00117 0.00161655 0)
(1.00149 0.00174375 0)
(1.00167 0.00198868 0)
(1.00183 0.00227983 0)
(1.00219 0.00253665 0)
(1.00261 0.00265889 0)
(1.00295 0.00276166 0)
(1.00305 0.00289827 0)
(1.00306 0.00301063 0)
(1.00009 -6.82952e-05 0)
(0.999931 -0.000145938 0)
(1.00009 -0.000181535 0)
(1.00009 2.14685e-05 0)
(1.0004 0.000334642 0)
(1.00059 0.000392586 0)
(1.00083 0.000468556 0)
(1.00093 0.000515325 0)
(1.00081 0.000759475 0)
(1.0007 0.00113247 0)
(1.00082 0.00145934 0)
(1.00123 0.00163571 0)
(1.00157 0.00175087 0)
(1.0018 0.00194807 0)
(1.00198 0.00218455 0)
(1.0023 0.00241983 0)
(1.00268 0.0025517 0)
(1.00302 0.00264517 0)
(1.00313 0.00275634 0)
(1.00313 0.00287337 0)
(1.00009 -5.40239e-05 0)