/*--------------------------------*- C++ -*----------------------------------*\
| =========                 |                                                 |
| \\      /  F ield         | OpenFOAM: The Open Source CFD Toolbox           |
|  \\    /   O peration     | Version:  3.0.1                                 |
|   \\  /    A nd           | Web:      www.OpenFOAM.org                      |
|    \\/     M anipulation  |                                                 |
\*---------------------------------------------------------------------------*/
FoamFile
{
    version     2.0;
    format      ascii;
    class       volScalarField;
    location    "3.9";
    object      p;
}
// * * * * * * * * * * * * * * * * * * * * * * * * * * * * * * * * * * * * * //

dimensions      [0 2 -2 0 0 0 0];

internalField   nonuniform List<scalar> 
9600
(
2.48471e-10
-0.00243341
-0.00392633
-0.00548858
-0.002131
-0.00322678
-0.00293773
-8.41786e-05
-0.0029358
-0.00657633
-0.00817628
-0.00711944
-0.0075143
-0.00771065
-0.00708369
-0.00618437
-0.00557407
-0.0036229
-0.00134308
0.00279738
2.9093e-06
-0.00244348
-0.00392001
-0.00548643
-0.00214781
-0.00322586
-0.00292129
-0.000116195
-0.00292368
-0.00660071
-0.00816449
-0.00709875
-0.00752819
-0.00769827
-0.00708264
-0.00619065
-0.00555931
-0.00365235
-0.0012838
0.00243915
4.94527e-06
-0.00245635
-0.00390679
-0.00548395
-0.00216705
-0.00322352
-0.00290934
-0.000161702
-0.00289778
-0.00662899
-0.00813096
-0.007062
-0.00754967
-0.00767418
-0.00709182
-0.00619303
-0.00554668
-0.00369284
-0.00125872
0.00193244
4.28427e-06
-0.00247257
-0.00389556
-0.00547926
-0.00218882
-0.00322251
-0.00290584
-0.000224786
-0.00287682
-0.00665523
-0.00808416
-0.00701859
-0.00758413
-0.00765275
-0.00710971
-0.00619947
-0.00553664
-0.00374141
-0.00128093
0.00147579
1.07696e-06
-0.00249366
-0.00388826
-0.00547182
-0.0022142
-0.00322159
-0.00290664
-0.000309566
-0.00286594
-0.00668007
-0.00802965
-0.00697858
-0.00763319
-0.00763534
-0.00712991
-0.0062108
-0.00552605
-0.00380152
-0.00132659
0.00105665
-4.55853e-06
-0.00252061
-0.00388344
-0.00546142
-0.00224237
-0.00321979
-0.00291163
-0.000416998
-0.00286212
-0.00670217
-0.00797298
-0.00694487
-0.00768826
-0.00761922
-0.00714647
-0.00622522
-0.00551517
-0.00387037
-0.00139324
0.000656591
-1.26434e-05
-0.00255363
-0.00387972
-0.00544816
-0.00227205
-0.00321741
-0.00292202
-0.000543405
-0.00286152
-0.00672148
-0.00791784
-0.00691393
-0.00774232
-0.00760321
-0.00715681
-0.00624237
-0.00550528
-0.00394548
-0.00148345
0.000269064
-2.31138e-05
-0.00259246
-0.0038762
-0.00543215
-0.00230226
-0.00321545
-0.00293838
-0.000683494
-0.00286196
-0.00673842
-0.00786568
-0.00688257
-0.00779269
-0.0075872
-0.00716076
-0.0062621
-0.00549759
-0.00402588
-0.00159939
-0.00010742
-3.58027e-05
-0.00263657
-0.00387213
-0.0054135
-0.00233259
-0.00321503
-0.00296068
-0.000832699
-0.0028618
-0.00675323
-0.00781722
-0.00684944
-0.00783831
-0.00757147
-0.00715962
-0.00628364
-0.00549341
-0.00411192
-0.00174132
-0.000473098
-5.04813e-05
-0.00268532
-0.00386705
-0.00539244
-0.00236313
-0.00321696
-0.0029885
-0.000987937
-0.00285997
-0.00676604
-0.007773
-0.00681382
-0.00787872
-0.00755686
-0.00715462
-0.00630607
-0.00549469
-0.00420415
-0.0019075
-0.000829666
-6.68901e-05
-0.00273799
-0.00386094
-0.00536934
-0.00239409
-0.0032215
-0.00302118
-0.00114752
-0.00285633
-0.00677683
-0.00773335
-0.00677519
-0.00791424
-0.00754406
-0.00714673
-0.00632926
-0.00550321
-0.00430278
-0.00209507
-0.00118069
-8.47745e-05
-0.00279393
-0.00385407
-0.00534467
-0.00242553
-0.00322842
-0.00305795
-0.00131064
-0.00285166
-0.00678544
-0.0076985
-0.00673353
-0.00794559
-0.00753312
-0.00713741
-0.00635367
-0.00551931
-0.00440869
-0.00230153
-0.00152943
-0.000103924
-0.0028525
-0.00384685
-0.00531888
-0.00245855
-0.00323717
-0.00309811
-0.00147681
-0.0028472
-0.00679164
-0.00766872
-0.00668913
-0.00797361
-0.00752396
-0.00712798
-0.00637967
-0.0055427
-0.00452402
-0.00252468
-0.00187678
-0.000124199
-0.00291316
-0.00383969
-0.00529238
-0.00249306
-0.00324716
-0.00314118
-0.00164557
-0.00284424
-0.00679509
-0.00764446
-0.00664221
-0.00799909
-0.00751682
-0.00711907
-0.00640818
-0.00557291
-0.00465129
-0.00276264
-0.00222119
-0.000145539
-0.00297547
-0.00383298
-0.00526544
-0.0025293
-0.00325785
-0.00318693
-0.00181637
-0.00284397
-0.00679547
-0.00762628
-0.00659284
-0.00802259
-0.00751213
-0.00711106
-0.00644118
-0.0056086
-0.00479183
-0.00301487
-0.00256032
-0.00016796
-0.0030391
-0.00382705
-0.00523823
-0.00256749
-0.00326887
-0.00323531
-0.00198867
-0.00284744
-0.00679244
-0.00761462
-0.00654125
-0.00804455
-0.00751036
-0.00710383
-0.00648122
-0.00564818
-0.00494542
-0.00328207
-0.00289211
-0.000191542
-0.0031038
-0.00382221
-0.0052108
-0.00260788
-0.00327995
-0.00328648
-0.00216188
-0.00285565
-0.00678563
-0.00760991
-0.00648768
-0.00806515
-0.00751234
-0.00709642
-0.00653122
-0.00569082
-0.00511019
-0.00356605
-0.0032147
-0.000216415
-0.00316939
-0.00381873
-0.00518315
-0.00265072
-0.00329095
-0.00334075
-0.00233542
-0.0028695
-0.00677463
-0.00761272
-0.00643237
-0.00808416
-0.00751947
-0.00708736
-0.00659389
-0.00573719
-0.00528251
-0.00386968
-0.00352745
-0.000242749
-0.00323569
-0.00381688
-0.00515519
-0.00269627
-0.00330178
-0.00339843
-0.00250873
-0.00288977
-0.0067592
-0.00762347
-0.00637584
-0.00810086
-0.00753355
-0.00707438
-0.00667061
-0.00579001
-0.00545754
-0.00419594
-0.00383158
-0.000270741
-0.00330254
-0.00381694
-0.00512682
-0.00274486
-0.00331238
-0.00345988
-0.00268122
-0.00291726
-0.00673924
-0.00764231
-0.00631892
-0.0081138
-0.00755696
-0.00705522
-0.00676099
-0.00585405
-0.00562949
-0.00454567
-0.00413173
-0.000300612
-0.00336974
-0.00381921
-0.00509793
-0.00279679
-0.00332269
-0.00352545
-0.00285241
-0.00295265
-0.00671472
-0.00766914
-0.00626284
-0.00812134
-0.0075922
-0.00702901
-0.00686362
-0.00593514
-0.00579222
-0.00491613
-0.00443759
-0.000332609
-0.00343704
-0.00382405
-0.00506839
-0.00285242
-0.00333264
-0.00359547
-0.00302194
-0.0029965
-0.0066857
-0.00770347
-0.00620931
-0.00812175
-0.00764161
-0.00699563
-0.0069747
-0.00604039
-0.00594164
-0.00530084
-0.00476067
-0.000366988
-0.00350416
-0.00383182
-0.00503811
-0.00291208
-0.00334216
-0.00367021
-0.00318957
-0.00304925
-0.00665273
-0.00774452
-0.00615994
-0.00811291
-0.00770715
-0.00695807
-0.00708868
-0.00617642
-0.00607754
-0.00568938
-0.00511145
-0.000404031
-0.00357078
-0.00384297
-0.00500697
-0.00297613
-0.00335128
-0.00374977
-0.00335519
-0.00311103
-0.00661671
-0.007791
-0.00611659
-0.008093
-0.00778962
-0.00692072
-0.00719919
-0.00634744
-0.00620372
-0.00606873
-0.00549705
-0.000444045
-0.00363654
-0.00385795
-0.00497487
-0.00304521
-0.00336013
-0.00383415
-0.00351893
-0.00318166
-0.00657873
-0.00784125
-0.00608162
-0.00806115
-0.00788891
-0.00688813
-0.00729954
-0.00655439
-0.00632801
-0.00642503
-0.00591882
-0.000487343
-0.00370103
-0.00387726
-0.00494174
-0.00311895
-0.00336883
-0.00392325
-0.00368114
-0.00326059
-0.00654018
-0.00789387
-0.00605716
-0.00801682
-0.00800421
-0.00686588
-0.00738372
-0.00679522
-0.00646178
-0.0067467
-0.00637128
-0.000534281
-0.00376384
-0.00390142
-0.00490756
-0.00319779
-0.00337769
-0.00401651
-0.00384265
-0.00334682
-0.00650253
-0.00794787
-0.00604464
-0.00795973
-0.00813399
-0.0068607
-0.00744737
-0.00706395
-0.00661915
-0.00702531
-0.0068414
-0.000585245
-0.0038245
-0.00393096
-0.00487231
-0.00328196
-0.00338722
-0.00411311
-0.00400466
-0.0034392
-0.00646669
-0.00800251
-0.00604553
-0.00789016
-0.00827563
-0.00687951
-0.00748766
-0.0073534
-0.00681198
-0.00725599
-0.00730847
-0.000640639
-0.00388252
-0.00396638
-0.0048361
-0.00337127
-0.00339817
-0.00421193
-0.00416847
-0.00353667
-0.00643327
-0.00805779
-0.00606106
-0.00780889
-0.00842571
-0.00692889
-0.00750414
-0.00765315
-0.00705035
-0.00744402
-0.00774721
-0.000700895
-0.0039374
-0.00400817
-0.00479913
-0.00346548
-0.00341153
-0.0043114
-0.00433563
-0.00363826
-0.00640246
-0.00811419
-0.00609207
-0.00771734
-0.00858033
-0.00701432
-0.00750009
-0.00794859
-0.00734097
-0.00760598
-0.00813002
-0.000766472
-0.0039886
-0.00405678
-0.00476162
-0.0035642
-0.00342872
-0.00440968
-0.0045074
-0.00374395
-0.0063736
-0.00817198
-0.00614021
-0.00761734
-0.00873491
-0.00713999
-0.00748145
-0.00822383
-0.00768239
-0.0077668
-0.00843618
-0.000837863
-0.00403563
-0.00411254
-0.00472407
-0.00366682
-0.00345108
-0.00450447
-0.00468465
-0.00385453
-0.00634561
-0.00823196
-0.00620702
-0.00751031
-0.00888456
-0.00730842
-0.007458
-0.00846524
-0.00806543
-0.007954
-0.00866285
-0.000915528
-0.004078
-0.00417564
-0.00468717
-0.00377242
-0.00347998
-0.0045933
-0.00486813
-0.00397131
-0.00631742
-0.00829483
-0.00629411
-0.00739851
-0.00902355
-0.0075203
-0.00744148
-0.00866267
-0.00847493
-0.00818985
-0.0088287
-0.00099995
-0.00411526
-0.00424618
-0.00465177
-0.00387959
-0.00351918
-0.00467429
-0.00505762
-0.0040967
-0.00628783
-0.00835941
-0.00640442
-0.00728602
-0.00914504
-0.00777473
-0.00744469
-0.00880698
-0.00889105
-0.00848515
-0.00896348
-0.00109164
-0.00414705
-0.00432394
-0.00461905
-0.00398648
-0.00357062
-0.00474661
-0.00525074
-0.00423385
-0.00625577
-0.00842346
-0.00654129
-0.00717777
-0.00924184
-0.00806819
-0.00748088
-0.00889993
-0.00929319
-0.00883892
-0.00910392
-0.00119105
-0.00417317
-0.00440843
-0.00459048
-0.00409093
-0.00363622
-0.0048104
-0.0054436
-0.004386
-0.00622206
-0.00848396
-0.00670649
-0.00708055
-0.00930671
-0.00839327
-0.00756403
-0.00894669
-0.00966236
-0.00923965
-0.00928082
-0.00129858
-0.00419355
-0.00449887
-0.00456771
-0.00419082
-0.00371739
-0.00486656
-0.00563304
-0.00455633
-0.00618921
-0.00853658
-0.00689974
-0.00700332
-0.00933421
-0.00873855
-0.00770607
-0.0089588
-0.00998272
-0.00967073
-0.00951013
-0.00141451
-0.00420825
-0.00459427
-0.00455279
-0.00428403
-0.00381484
-0.00491709
-0.00581538
-0.00474682
-0.00616104
-0.00857699
-0.0071191
-0.00695601
-0.00932278
-0.00908921
-0.0079131
-0.00895237
-0.0102427
-0.0101147
-0.00979591
-0.00153912
-0.00421758
-0.00469321
-0.00454789
-0.0043687
-0.00392885
-0.00496536
-0.0059858
-0.00495752
-0.00614338
-0.00860141
-0.00735979
-0.00694861
-0.00927579
-0.00942798
-0.00818547
-0.00894818
-0.0104345
-0.0105532
-0.0101353
-0.00167272
-0.00422215
-0.00479382
-0.00455531
-0.00444354
-0.00405874
-0.00501607
-0.00614019
-0.00518641
-0.00614386
-0.00860813
-0.00761388
-0.00698889
-0.0092013
-0.00973757
-0.00851717
-0.00897001
-0.0105571
-0.0109654
-0.0105225
-0.00181543
-0.00422262
-0.00489428
-0.00457781
-0.00450803
-0.00420152
-0.00507533
-0.00627647
-0.00542865
-0.00616966
-0.00859916
-0.00787115
-0.00707941
-0.00911154
-0.0100045
-0.00889584
-0.00904025
-0.0106198
-0.0113288
-0.0109467
-0.0019673
-0.00421987
-0.00499232
-0.00461785
-0.00456226
-0.00435235
-0.00514929
-0.00639512
-0.00567782
-0.00622561
-0.00857837
-0.0081217
-0.00721802
-0.00902046
-0.0102205
-0.00930461
-0.00917537
-0.0106425
-0.0116226
-0.011387
-0.00212809
-0.0042155
-0.00508539
-0.00467691
-0.00458809
-0.00450618
-0.00524325
-0.00649855
-0.00592724
-0.00631326
-0.00855219
-0.00835977
-0.0073995
-0.00894071
-0.0103826
-0.00972448
-0.00938177
-0.0106524
-0.0118363
-0.0118136
-0.00229747
-0.00421147
-0.00517108
-0.00475598
-0.00462874
-0.00465367
-0.00535985
-0.0065985
-0.00617016
-0.00643005
-0.00852779
-0.00858253
-0.00761705
-0.00888396
-0.0104931
-0.0101365
-0.00965617
-0.0106775
-0.0119758
-0.0121956
-0.00247503
-0.00420968
-0.00524644
-0.00485597
-0.00467201
-0.00479341
-0.00549706
-0.00669935
-0.00640243
-0.00656855
-0.00851078
-0.00878856
-0.00786408
-0.00886039
-0.0105581
-0.0105231
-0.00998892
-0.010741
-0.0120602
-0.0125104
-0.00265973
-0.00421264
-0.00530938
-0.00497734
-0.00472567
-0.00491583
-0.00564737
-0.00680788
-0.00662261
-0.00672186
-0.0085052
-0.00897956
-0.00813539
-0.00887797
-0.0105879
-0.0108693
-0.0103649
-0.0108573
-0.0121122
-0.0127524
-0.00285053
-0.00422289
-0.00535898
-0.00511737
-0.00479622
-0.00502211
-0.00580223
-0.00692866
-0.00683513
-0.00688689
-0.00851272
-0.0091555
-0.00842564
-0.00894132
-0.0105952
-0.0111637
-0.0107644
-0.0110334
-0.0121549
-0.0129294
-0.00304613
-0.00424307
-0.0053948
-0.00527086
-0.0048906
-0.00511519
-0.00595298
-0.0070621
-0.00704677
-0.00706191
-0.00853199
-0.00931576
-0.0087282
-0.00905219
-0.0105943
-0.0114014
-0.0111654
-0.0112693
-0.0122098
-0.013054
-0.00324461
-0.00427545
-0.00541759
-0.00543218
-0.00501434
-0.00520229
-0.00609296
-0.0072063
-0.00726145
-0.00724613
-0.00856338
-0.00945953
-0.00903463
-0.00920989
-0.0106006
-0.0115851
-0.0115472
-0.0115566
-0.0122966
-0.0131405
-0.00344409
-0.00432178
-0.00543
-0.00559412
-0.00517055
-0.00529476
-0.00621753
-0.00735352
-0.00748083
-0.00744187
-0.00860838
-0.00958556
-0.00933668
-0.00941105
-0.0106286
-0.0117248
-0.0118935
-0.0118782
-0.0124292
-0.0132082
-0.00364262
-0.00438317
-0.00543659
-0.00575009
-0.00535909
-0.00540435
-0.00632599
-0.00749405
-0.0077036
-0.0076527
-0.00866963
-0.00969482
-0.00962723
-0.00964835
-0.0106882
-0.0118333
-0.0121955
-0.0122124
-0.01261
-0.0132806
-0.00383832
-0.00446054
-0.00544269
-0.00589544
-0.00557669
-0.00553948
-0.00642053
-0.00762033
-0.00792645
-0.00788028
-0.00875227
-0.0097911
-0.00989815
-0.00991121
-0.0107842
-0.011925
-0.0124531
-0.0125403
-0.0128302
-0.0133784
-0.00402962
-0.0045544
-0.00545467
-0.00602521
-0.00581519
-0.00570785
-0.00650915
-0.0077281
-0.00814242
-0.00812199
-0.0088616
-0.00988116
-0.0101439
-0.0101879
-0.0109176
-0.0120133
-0.0126721
-0.0128511
-0.0130748
-0.0135091
-0.00421584
-0.00466473
-0.00547948
-0.00613639
-0.00606035
-0.00591316
-0.00660623
-0.00781782
-0.00834388
-0.00837329
-0.00899969
-0.00997349
-0.0103651
-0.0104667
-0.0110844
-0.0121074
-0.0128578
-0.01314
-0.0133314
-0.0136679
-0.00439735
-0.0047893
-0.005523
-0.0062299
-0.00629835
-0.00615361
-0.00672651
-0.00789342
-0.00852446
-0.00862737
-0.0091649
-0.0100761
-0.0105663
-0.0107388
-0.0112772
-0.0122145
-0.0130156
-0.0134028
-0.0135934
-0.0138473
-0.00457501
-0.00492579
-0.00558759
-0.0063122
-0.00652033
-0.00641966
-0.00687955
-0.00796511
-0.0086817
-0.00887482
-0.00935323
-0.0101947
-0.010753
-0.0109999
-0.0114875
-0.01234
-0.0131549
-0.0136343
-0.0138541
-0.0140424
-0.00474981
-0.00507119
-0.00567377
-0.00639307
-0.00672169
-0.00669543
-0.00706693
-0.00804788
-0.00881834
-0.00910678
-0.00955774
-0.010332
-0.010931
-0.0112484
-0.0117078
-0.0124844
-0.013287
-0.0138329
-0.014103
-0.0142507
-0.0049231
-0.0052231
-0.00578054
-0.0064811
-0.00690295
-0.00696679
-0.00728539
-0.00815362
-0.00894106
-0.00931893
-0.00976801
-0.0104862
-0.0111069
-0.0114857
-0.0119328
-0.0126435
-0.0134201
-0.014005
-0.0143302
-0.0144668
-0.0050964
-0.00538047
-0.00590475
-0.00658087
-0.00706771
-0.00722554
-0.00752673
-0.00828812
-0.00906095
-0.00951241
-0.00997521
-0.0106526
-0.0112832
-0.0117139
-0.0121598
-0.0128133
-0.0135574
-0.0141613
-0.0145309
-0.0146798
-0.00527095
-0.00554218
-0.0060431
-0.00669475
-0.00722377
-0.00746848
-0.00777782
-0.00845098
-0.0091888
-0.00969036
-0.010175
-0.010825
-0.0114592
-0.011933
-0.0123875
-0.0129935
-0.0136989
-0.0143089
-0.014708
-0.0148782
-0.00544762
-0.00570803
-0.00619217
-0.00682303
-0.0073788
-0.00769633
-0.0080276
-0.00863796
-0.00933199
-0.0098596
-0.0103656
-0.0109984
-0.0116338
-0.0121427
-0.0126125
-0.0131831
-0.0138453
-0.0144502
-0.0148679
-0.0150574
-0.00562695
-0.00587819
-0.00634966
-0.00696455
-0.00753738
-0.0079115
-0.00827075
-0.00884024
-0.00949207
-0.0100286
-0.0105472
-0.0111685
-0.0118052
-0.0123423
-0.01283
-0.0133786
-0.0139992
-0.0145881
-0.0150163
-0.0152189
-0.00580929
-0.00605293
-0.00651435
-0.00711725
-0.00770147
-0.00811871
-0.00850595
-0.00904898
-0.00966585
-0.0102028
-0.0107246
-0.0113331
-0.0119702
-0.0125313
-0.0130367
-0.0135738
-0.0141607
-0.0147269
-0.0151581
-0.0153682
-0.00599467
-0.00623234
-0.00668574
-0.00727894
-0.00787151
-0.00832255
-0.00873366
-0.00925898
-0.00984872
-0.0103822
-0.0109025
-0.0114942
-0.0121265
-0.0127073
-0.0132306
-0.0137624
-0.014324
-0.0148664
-0.0152954
-0.0155121
-0.00618313
-0.00641633
-0.0068636
-0.007448
-0.0080468
-0.00852544
-0.00895524
-0.00946764
-0.0100358
-0.0105639
-0.0110812
-0.0116554
-0.0122758
-0.0128682
-0.0134092
-0.0139408
-0.0144835
-0.0150024
-0.0154235
-0.015647
-0.0063748
-0.00660468
-0.00704756
-0.00762374
-0.00822631
-0.00872791
-0.00917326
-0.00967454
-0.0102237
-0.0107459
-0.0112574
-0.0118154
-0.0124211
-0.013016
-0.0135704
-0.0141057
-0.014636
-0.0151344
-0.0155413
-0.0157653
-0.00656973
-0.00679707
-0.00723698
-0.00780594
-0.00840957
-0.00892957
-0.00938885
-0.00987979
-0.0104108
-0.0109266
-0.0114307
-0.0119699
-0.0125586
-0.0131507
-0.0137137
-0.0142545
-0.0147783
-0.0152623
-0.0156552
-0.0158745
-0.00676788
-0.00699295
-0.00743094
-0.00799395
-0.00859693
-0.00913078
-0.0096017
-0.0100838
-0.0105962
-0.0111031
-0.011601
-0.01212
-0.0126841
-0.0132662
-0.0138334
-0.0143805
-0.0149046
-0.0153817
-0.0157657
-0.0159806
-0.00696897
-0.00719206
-0.00762893
-0.00818707
-0.00878801
-0.00933187
-0.00981191
-0.0102867
-0.0107809
-0.0112735
-0.0117639
-0.0122669
-0.0128014
-0.0133622
-0.0139235
-0.0144706
-0.0149979
-0.0154779
-0.0158614
-0.0160769
-0.00717283
-0.0073938
-0.00782987
-0.00838546
-0.00898288
-0.00953255
-0.0100197
-0.010488
-0.010965
-0.0114394
-0.0119151
-0.0124034
-0.0129119
-0.0134434
-0.0139877
-0.0145237
-0.0150442
-0.0155273
-0.0159199
-0.0161474
-0.00737905
-0.00759723
-0.00803241
-0.00858703
-0.00918174
-0.00973441
-0.0102266
-0.0106884
-0.0111473
-0.0116012
-0.0120562
-0.0125207
-0.0130038
-0.0135059
-0.0140227
-0.0145394
-0.0150456
-0.0155215
-0.0159192
-0.0161661
-0.00758725
-0.00780352
-0.00823691
-0.00878938
-0.00938206
-0.00993788
-0.0104345
-0.0108916
-0.0113305
-0.0117592
-0.0121897
-0.0126198
-0.0130663
-0.0135351
-0.0140172
-0.0145086
-0.0149932
-0.0154504
-0.0158409
-0.0160993
-0.00779659
-0.0080112
-0.00844238
-0.00899291
-0.00958281
-0.0101409
-0.0106433
-0.0111006
-0.0115248
-0.0119233
-0.0123177
-0.0127012
-0.0130858
-0.0135037
-0.0139517
-0.0144186
-0.0148882
-0.0153303
-0.0157072
-0.0159527
-0.00800446
-0.0082177
-0.00864856
-0.00919655
-0.00978311
-0.0103414
-0.0108505
-0.0113142
-0.0117415
-0.012128
-0.0124775
-0.0127752
-0.0130383
-0.0133236
-0.0136594
-0.014058
-0.014525
-0.0150425
-0.0155659
-0.0159951
-0.00821131
-0.00842474
-0.00885595
-0.00939964
-0.00997828
-0.0105326
-0.0110448
-0.0115213
-0.0119752
-0.0124011
-0.0128017
-0.0131168
-0.0132671
-0.0133388
-0.0134463
-0.0135945
-0.0137345
-0.0138323
-0.0138891
-0.0139768
-0.00842054
-0.00863277
-0.00906006
-0.00960139
-0.0101703
-0.0107119
-0.0112167
-0.0116938
-0.0121321
-0.0124557
-0.012645
-0.0127713
-0.0129101
-0.013083
-0.0132923
-0.0135298
-0.0137658
-0.0139972
-0.0142333
-0.0145183
-0.00863313
-0.00883385
-0.00925799
-0.00979533
-0.0103676
-0.01091
-0.0113693
-0.0117169
-0.0119946
-0.0122518
-0.0125341
-0.0128128
-0.0130932
-0.0133638
-0.0135814
-0.0137357
-0.0138032
-0.0138009
-0.0137872
-0.0138531
-0.00886686
-0.0090414
-0.00940276
-0.00985951
-0.0103487
-0.0108192
-0.0112466
-0.0116312
-0.0119841
-0.0122961
-0.0125947
-0.0128677
-0.0131026
-0.0133605
-0.0136589
-0.0140318
-0.0145064
-0.0150646
-0.0156649
-0.0162174
-0.00912126
-0.00930852
-0.00957428
-0.00992132
-0.0103377
-0.0107949
-0.0112612
-0.0116981
-0.0121098
-0.0124529
-0.0127331
-0.0130006
-0.01322
-0.0134053
-0.0135747
-0.0136786
-0.013719
-0.0137193
-0.013751
-0.0138987
-0.00928762
-0.00946186
-0.00969563
-0.00999351
-0.0103657
-0.0108076
-0.0112805
-0.0117206
-0.0121156
-0.0124485
-0.0127087
-0.0129548
-0.0131971
-0.0134179
-0.013638
-0.0138479
-0.0140455
-0.014236
-0.0144561
-0.0147748
0.00997519
0.00162185
-0.00837692
-0.0152868
-0.0174903
-0.0171821
-0.0170173
-0.0175195
-0.0181241
-0.0183309
-0.0181426
-0.0179037
-0.0178475
-0.0179942
-0.0183385
-0.0187506
-0.0190109
-0.0191567
-0.0193853
-0.019723
-0.0200718
-0.0203672
-0.0206224
-0.0209307
-0.0213609
-0.0218433
-0.0222614
-0.0226162
-0.0229905
-0.0234113
-0.0238326
-0.0242231
-0.0245972
-0.0249921
-0.025417
-0.0258384
-0.0262272
-0.0266098
-0.0270354
-0.0274999
-0.0279661
-0.0284339
-0.0289187
-0.0293976
-0.0298379
-0.0302732
-0.0307417
-0.0312173
-0.0316862
-0.0321806
-0.0327103
-0.0332323
-0.0337463
-0.0342814
-0.0348085
-0.0353233
-0.0358753
-0.0364453
-0.037015
-0.0376046
-0.038198
-0.0387668
-0.0393418
-0.0399429
-0.0405605
-0.0411946
-0.0418515
-0.0425081
-0.0431644
-0.0438307
-0.0445133
-0.0452042
-0.0459122
-0.0466346
-0.0473789
-0.0481342
-0.0489024
-0.0496772
-0.0504652
-0.0512657
-0.0520791
-0.0529165
-0.0537626
-0.0546324
-0.0555016
-0.056399
-0.0572985
-0.0582275
-0.0591633
-0.0601152
-0.0610847
-0.0620596
-0.0630659
-0.0640662
-0.0650917
-0.0661135
-0.0671636
-0.0681578
-0.0691654
-0.0702116
0.00879108
0.00144181
-0.00829803
-0.015141
-0.0173969
-0.0171345
-0.0169897
-0.017504
-0.0181149
-0.0183251
-0.0181378
-0.0178988
-0.0178422
-0.0179888
-0.0183336
-0.0187467
-0.0190076
-0.0191534
-0.0193821
-0.0197201
-0.0200693
-0.020365
-0.0206202
-0.0209285
-0.0213588
-0.0218414
-0.0222597
-0.0226145
-0.0229889
-0.0234097
-0.0238312
-0.0242218
-0.0245959
-0.0249908
-0.0254158
-0.0258374
-0.0262263
-0.0266089
-0.0270345
-0.0274991
-0.0279654
-0.0284332
-0.0289181
-0.029397
-0.0298374
-0.0302726
-0.0307412
-0.0312168
-0.0316858
-0.0321802
-0.0327099
-0.0332319
-0.0337459
-0.034281
-0.0348082
-0.035323
-0.0358749
-0.036445
-0.0370147
-0.0376043
-0.0381977
-0.0387665
-0.0393416
-0.0399427
-0.0405603
-0.0411943
-0.0418512
-0.0425079
-0.0431642
-0.0438305
-0.0445131
-0.045204
-0.045912
-0.0466345
-0.0473787
-0.048134
-0.0489023
-0.0496771
-0.0504651
-0.0512655
-0.052079
-0.0529164
-0.0537624
-0.0546322
-0.0555015
-0.0563989
-0.0572984
-0.0582274
-0.0591632
-0.0601151
-0.0610846
-0.0620596
-0.0630658
-0.0640661
-0.0650917
-0.0661134
-0.0671635
-0.0681577
-0.0691653
-0.0702116
0.00779951
0.00129856
-0.0081296
-0.0148824
-0.0172517
-0.0170814
-0.016958
-0.0174777
-0.0180958
-0.0183126
-0.0181301
-0.017894
-0.0178385
-0.0179847
-0.018329
-0.0187425
-0.019004
-0.0191504
-0.0193793
-0.0197174
-0.0200669
-0.0203627
-0.0206181
-0.0209265
-0.021357
-0.0218399
-0.0222582
-0.0226131
-0.0229875
-0.0234084
-0.0238299
-0.0242206
-0.0245948
-0.0249898
-0.0254148
-0.0258365
-0.0262255
-0.0266081
-0.0270337
-0.0274984
-0.0279647
-0.0284326
-0.0289175
-0.0293965
-0.0298369
-0.0302722
-0.0307408
-0.0312164
-0.0316854
-0.0321798
-0.0327095
-0.0332316
-0.0337456
-0.0342807
-0.0348079
-0.0353226
-0.0358747
-0.0364447
-0.0370145
-0.0376041
-0.0381975
-0.0387663
-0.0393414
-0.0399425
-0.0405601
-0.0411941
-0.041851
-0.0425077
-0.043164
-0.0438303
-0.044513
-0.0452038
-0.0459119
-0.0466343
-0.0473785
-0.0481339
-0.0489021
-0.0496769
-0.050465
-0.0512654
-0.0520789
-0.0529163
-0.0537623
-0.0546321
-0.0555014
-0.0563988
-0.0572983
-0.0582273
-0.0591632
-0.060115
-0.0610846
-0.0620595
-0.0630657
-0.0640661
-0.0650916
-0.0661134
-0.0671634
-0.0681576
-0.0691652
-0.0702116
0.00689937
0.00114011
-0.0079299
-0.0145686
-0.0170613
-0.0170096
-0.0169108
-0.0174327
-0.0180581
-0.0182853
-0.018114
-0.0178869
-0.0178359
-0.0179821
-0.0183241
-0.0187364
-0.0189989
-0.019147
-0.019377
-0.0197148
-0.0200636
-0.0203597
-0.0206157
-0.0209246
-0.0213552
-0.0218381
-0.0222566
-0.0226117
-0.0229862
-0.0234071
-0.0238286
-0.0242193
-0.0245936
-0.0249886
-0.0254137
-0.0258355
-0.0262245
-0.0266072
-0.0270328
-0.0274975
-0.027964
-0.0284319
-0.0289169
-0.029396
-0.0298364
-0.0302716
-0.0307403
-0.031216
-0.0316849
-0.0321793
-0.0327092
-0.0332313
-0.0337453
-0.0342804
-0.0348076
-0.0353223
-0.0358743
-0.0364445
-0.0370142
-0.0376038
-0.0381973
-0.0387661
-0.0393411
-0.0399422
-0.0405599
-0.0411939
-0.0418509
-0.0425076
-0.0431638
-0.0438301
-0.0445128
-0.0452037
-0.0459117
-0.0466341
-0.0473784
-0.0481337
-0.048902
-0.0496768
-0.0504648
-0.0512653
-0.0520787
-0.0529162
-0.0537622
-0.054632
-0.0555013
-0.0563987
-0.0572982
-0.0582272
-0.0591631
-0.060115
-0.0610845
-0.0620594
-0.0630657
-0.064066
-0.0650915
-0.0661133
-0.0671634
-0.0681576
-0.0691652
-0.0702118
0.00600586
0.000935997
-0.00772984
-0.0142387
-0.0168514
-0.0169286
-0.0168555
-0.0173733
-0.0180019
-0.0182411
-0.0180864
-0.0178747
-0.0178331
-0.0179809
-0.0183191
-0.0187277
-0.018991
-0.0191429
-0.0193752
-0.0197124
-0.0200596
-0.0203555
-0.0206127
-0.0209226
-0.0213531
-0.0218357
-0.0222545
-0.0226102
-0.0229849
-0.0234056
-0.023827
-0.0242178
-0.0245923
-0.0249874
-0.0254124
-0.0258342
-0.0262233
-0.026606
-0.0270317
-0.0274965
-0.0279631
-0.0284311
-0.0289162
-0.0293954
-0.0298358
-0.030271
-0.0307397
-0.0312154
-0.0316844
-0.0321789
-0.0327087
-0.0332309
-0.0337449
-0.03428
-0.0348073
-0.035322
-0.035874
-0.0364442
-0.0370139
-0.0376035
-0.0381971
-0.0387658
-0.0393409
-0.039942
-0.0405596
-0.0411937
-0.0418506
-0.0425074
-0.0431636
-0.0438299
-0.0445126
-0.0452035
-0.0459115
-0.046634
-0.0473782
-0.0481336
-0.0489018
-0.0496767
-0.0504647
-0.0512651
-0.0520786
-0.052916
-0.0537621
-0.0546319
-0.0555012
-0.0563986
-0.0572981
-0.0582271
-0.059163
-0.0601149
-0.0610844
-0.0620593
-0.0630656
-0.0640659
-0.0650914
-0.0661132
-0.0671633
-0.0681576
-0.0691652
-0.0702121
0.00511402
0.000690543
-0.00753679
-0.0139046
-0.0166302
-0.0168434
-0.0167999
-0.0173091
-0.0179361
-0.0181855
-0.0180494
-0.0178573
-0.0178289
-0.0179801
-0.0183135
-0.0187165
-0.0189803
-0.0191376
-0.0193739
-0.0197105
-0.0200552
-0.0203504
-0.0206095
-0.0209208
-0.0213508
-0.0218324
-0.0222515
-0.0226084
-0.0229838
-0.023404
-0.0238248
-0.0242159
-0.0245909
-0.0249862
-0.0254109
-0.0258325
-0.0262217
-0.0266047
-0.0270304
-0.0274951
-0.0279618
-0.0284301
-0.0289154
-0.0293945
-0.0298349
-0.0302703
-0.030739
-0.0312148
-0.0316838
-0.0321783
-0.0327082
-0.0332304
-0.0337444
-0.0342796
-0.0348069
-0.0353216
-0.0358736
-0.0364438
-0.0370136
-0.0376032
-0.0381968
-0.0387656
-0.0393406
-0.0399417
-0.0405593
-0.0411934
-0.0418504
-0.0425072
-0.0431634
-0.0438297
-0.0445124
-0.0452033
-0.0459113
-0.0466338
-0.047378
-0.0481334
-0.0489017
-0.0496765
-0.0504645
-0.051265
-0.0520785
-0.0529159
-0.053762
-0.0546318
-0.055501
-0.0563985
-0.0572979
-0.058227
-0.0591629
-0.0601148
-0.0610843
-0.0620592
-0.0630655
-0.0640658
-0.0650914
-0.0661132
-0.0671633
-0.0681576
-0.0691652
-0.0702124
0.00423371
0.000410564
-0.00735574
-0.0135706
-0.0163985
-0.0167532
-0.0167454
-0.0172441
-0.0178661
-0.0181238
-0.0180065
-0.0178358
-0.0178229
-0.0179789
-0.0183073
-0.0187037
-0.0189677
-0.0191314
-0.0193725
-0.0197086
-0.0200504
-0.0203451
-0.0206066
-0.0209197
-0.0213484
-0.021828
-0.0222475
-0.0226064
-0.0229827
-0.0234021
-0.023822
-0.0242133
-0.0245892
-0.0249848
-0.0254092
-0.0258304
-0.0262199
-0.0266031
-0.0270287
-0.0274932
-0.0279601
-0.0284288
-0.0289142
-0.0293934
-0.0298339
-0.0302693
-0.0307381
-0.0312139
-0.031683
-0.0321776
-0.0327076
-0.0332298
-0.0337439
-0.0342791
-0.0348064
-0.0353211
-0.0358732
-0.0364434
-0.0370132
-0.0376029
-0.0381965
-0.0387652
-0.0393402
-0.0399414
-0.0405591
-0.0411931
-0.0418502
-0.0425069
-0.0431632
-0.0438295
-0.0445122
-0.045203
-0.0459111
-0.0466336
-0.0473778
-0.0481332
-0.0489015
-0.0496763
-0.0504644
-0.0512648
-0.0520783
-0.0529157
-0.0537618
-0.0546317
-0.0555009
-0.0563984
-0.0572978
-0.0582269
-0.0591628
-0.0601147
-0.0610842
-0.0620591
-0.0630654
-0.0640657
-0.0650913
-0.0661131
-0.0671632
-0.0681576
-0.0691652
-0.0702129
0.00337541
9.91999e-05
-0.00719309
-0.0132404
-0.0161557
-0.0166558
-0.0166912
-0.017179
-0.0177933
-0.018058
-0.0179593
-0.0178109
-0.0178149
-0.0179768
-0.0183004
-0.0186899
-0.0189542
-0.0191246
-0.0193708
-0.0197063
-0.0200453
-0.0203399
-0.0206045
-0.0209196
-0.0213464
-0.0218229
-0.0222425
-0.022604
-0.0229816
-0.0233999
-0.0238185
-0.02421
-0.0245871
-0.0249832
-0.0254071
-0.025828
-0.0262179
-0.0266016
-0.0270269
-0.0274909
-0.027958
-0.0284271
-0.0289126
-0.0293918
-0.0298325
-0.0302682
-0.030737
-0.0312128
-0.031682
-0.0321767
-0.0327068
-0.033229
-0.0337432
-0.0342785
-0.0348058
-0.0353205
-0.0358726
-0.0364429
-0.0370127
-0.0376025
-0.0381961
-0.0387649
-0.0393399
-0.039941
-0.0405587
-0.0411928
-0.0418499
-0.0425066
-0.0431629
-0.0438292
-0.0445119
-0.0452028
-0.0459109
-0.0466333
-0.0473776
-0.048133
-0.0489013
-0.0496761
-0.0504642
-0.0512647
-0.0520781
-0.0529156
-0.0537616
-0.0546315
-0.0555008
-0.0563982
-0.0572977
-0.0582268
-0.0591626
-0.0601145
-0.0610841
-0.062059
-0.0630653
-0.0640656
-0.0650912
-0.066113
-0.0671631
-0.0681577
-0.0691654
-0.0702136
0.00254708
-0.000242802
-0.00705568
-0.0129172
-0.0159001
-0.0165474
-0.0166357
-0.0171142
-0.0177188
-0.0179891
-0.0179086
-0.0177829
-0.0178048
-0.0179737
-0.0182931
-0.0186755
-0.0189401
-0.0191173
-0.0193685
-0.0197035
-0.0200399
-0.0203349
-0.0206032
-0.0209205
-0.0213448
-0.0218175
-0.0222369
-0.0226012
-0.0229805
-0.0233977
-0.0238146
-0.024206
-0.0245844
-0.0249811
-0.0254045
-0.025825
-0.0262158
-0.0266002
-0.0270251
-0.0274884
-0.0279555
-0.0284251
-0.0289107
-0.0293897
-0.0298308
-0.0302669
-0.0307357
-0.0312114
-0.0316808
-0.0321755
-0.0327056
-0.033228
-0.0337423
-0.0342777
-0.0348051
-0.0353197
-0.0358718
-0.0364422
-0.0370122
-0.037602
-0.0381956
-0.0387644
-0.0393395
-0.0399406
-0.0405583
-0.0411925
-0.0418496
-0.0425063
-0.0431626
-0.0438289
-0.0445116
-0.0452025
-0.0459106
-0.0466331
-0.0473774
-0.0481328
-0.048901
-0.0496759
-0.0504639
-0.0512644
-0.0520779
-0.0529154
-0.0537614
-0.0546313
-0.0555006
-0.0563981
-0.0572975
-0.0582266
-0.0591625
-0.0601144
-0.061084
-0.0620589
-0.0630652
-0.0640655
-0.0650911
-0.0661129
-0.0671631
-0.0681578
-0.0691656
-0.0702143
0.00175198
-0.00061457
-0.00694667
-0.0126018
-0.0156299
-0.0164254
-0.0165786
-0.0170513
-0.0176438
-0.0179174
-0.0178542
-0.0177516
-0.0177927
-0.0179698
-0.0182853
-0.0186606
-0.0189253
-0.0191094
-0.0193659
-0.0197003
-0.0200342
-0.0203299
-0.0206023
-0.0209221
-0.0213436
-0.0218119
-0.0222308
-0.0225981
-0.0229793
-0.0233954
-0.0238104
-0.0242017
-0.0245812
-0.0249785
-0.0254012
-0.0258215
-0.0262134
-0.026599
-0.0270235
-0.0274859
-0.0279529
-0.028423
-0.0289083
-0.0293871
-0.0298287
-0.0302653
-0.0307342
-0.0312099
-0.0316794
-0.0321742
-0.0327042
-0.0332267
-0.0337412
-0.0342767
-0.0348042
-0.0353189
-0.0358709
-0.0364413
-0.0370114
-0.0376014