/*--------------------------------*- C++ -*----------------------------------*\
| =========                 |                                                 |
| \\      /  F ield         | OpenFOAM: The Open Source CFD Toolbox           |
|  \\    /   O peration     | Version:  3.0.1                                 |
|   \\  /    A nd           | Web:      www.OpenFOAM.org                      |
|    \\/     M anipulation  |                                                 |
\*---------------------------------------------------------------------------*/
FoamFile
{
    version     2.0;
    format      ascii;
    class       surfaceScalarField;
    location    "3.9";
    object      phi;
}
// * * * * * * * * * * * * * * * * * * * * * * * * * * * * * * * * * * * * * //

dimensions      [0 3 -1 0 0 0 0];

internalField   nonuniform List<scalar> 
19000
(
1.19046e-06
1.03101e-06
1.12751e-06
-1.40918e-06
1.18442e-06
1.39222e-06
1.16313e-06
1.70701e-07
1.0966e-06
-3.68627e-07
1.14412e-06
-5.02975e-07
1.19612e-06
8.66784e-07
1.09446e-06
-9.75791e-07
1.15934e-06
1.0682e-06
1.09545e-06
2.34509e-07
1.11877e-06
3.6202e-07
1.12654e-06
8.47976e-07
1.10066e-06
2.12227e-07
1.132e-06
3.35647e-07
1.12738e-06
-1.1856e-07
1.12837e-06
-4.50038e-08
1.14119e-06
-2.38164e-07
1.13506e-06
-1.50741e-07
1.15069e-06
-1.06133e-07
-1.71483e-07
1.11079e-06
1.24418e-06
1.01109e-06
1.18135e-06
-1.34635e-06
1.234e-06
1.33957e-06
1.21866e-06
1.86043e-07
1.15039e-06
-3.00355e-07
1.1976e-06
-5.50188e-07
1.24824e-06
8.16147e-07
1.14589e-06
-8.73446e-07
1.2059e-06
1.00819e-06
1.1525e-06
2.87905e-07
1.1613e-06
3.5322e-07
1.19751e-06
8.11771e-07
1.15682e-06
2.52909e-07
1.19785e-06
2.9462e-07
1.18312e-06
-1.03832e-07
1.19801e-06
-5.98862e-08
1.1909e-06
-2.31055e-07
1.20692e-06
-1.66767e-07
1.19438e-06
-9.35861e-08
-1.7206e-07
1.19495e-06
1.30116e-06
9.92718e-07
1.23887e-06
-1.28407e-06
1.28312e-06
1.29532e-06
1.2783e-06
1.90867e-07
1.21116e-06
-2.33216e-07
1.24947e-06
-5.88503e-07
1.30164e-06
7.63978e-07
1.20521e-06
-7.77015e-07
1.25206e-06
9.61341e-07
1.21807e-06
3.21896e-07
1.20577e-06
3.65518e-07
1.26074e-06
7.568e-07
1.21803e-06
2.95619e-07
1.25043e-06
2.6222e-07
1.24095e-06
-9.43479e-08
1.25246e-06
-7.1391e-08
1.24583e-06
-2.24426e-07
1.25814e-06
-1.79084e-07
1.25372e-06
-8.91656e-08
-1.62696e-07
1.24436e-06
1.3611e-06
9.75718e-07
1.30222e-06
-1.22518e-06
1.33425e-06
1.26328e-06
1.34246e-06
1.82659e-07
1.27897e-06
-1.69721e-07
1.30355e-06
-6.13085e-07
1.35682e-06
7.10702e-07
1.27486e-06
-6.95055e-07
1.30291e-06
9.33296e-07
1.29079e-06
3.34017e-07
1.25844e-06
3.97867e-07
1.31127e-06
7.03966e-07
1.28585e-06
3.21041e-07
1.30274e-06
2.45332e-07
1.30264e-06
-9.42483e-08
1.31104e-06
-7.97897e-08
1.30623e-06
-2.19617e-07
1.31532e-06
-1.88176e-07
1.31408e-06
-8.79214e-08
-1.51452e-07
1.30283e-06
1.42401e-06
9.60059e-07
1.37112e-06
-1.17229e-06
1.39019e-06
1.24421e-06
1.40961e-06
1.63243e-07
1.35366e-06
-1.13767e-07
1.36263e-06
-6.22059e-07
1.41507e-06
6.58261e-07
1.35293e-06
-6.32914e-07
1.36259e-06
9.23639e-07
1.36459e-06
3.3202e-07
1.32487e-06
4.37582e-07
1.36308e-06
6.65758e-07
1.35873e-06
3.2539e-07
1.36728e-06
2.36787e-07
1.36974e-06
-9.67145e-08
1.37872e-06
-8.87687e-08
1.37348e-06
-2.14372e-07
1.38006e-06
-1.94756e-07
1.37972e-06
-8.75817e-08
-1.4027e-07
1.36853e-06
1.48991e-06
9.45821e-07
1.44462e-06
-1.12699e-06
1.45333e-06
1.2355e-06
1.47876e-06
1.3781e-07
1.43382e-06
-6.88269e-08
1.4287e-06
-6.16945e-07
1.4774e-06
6.09562e-07
1.43488e-06
-5.9039e-07
1.43157e-06
9.26946e-07
1.43844e-06
3.25153e-07
1.40329e-06
4.72728e-07
1.42682e-06
6.42235e-07
1.43544e-06
3.16768e-07
1.44287e-06
2.29358e-07
1.44347e-06
-9.73138e-08
1.45179e-06
-9.70916e-08
1.44602e-06
-2.086e-07
1.44959e-06
-1.9833e-07
1.44959e-06
-8.75834e-08
-1.29326e-07
1.43865e-06
1.55892e-06
9.33114e-07
1.5216e-06
-1.08967e-06
1.52456e-06
1.23254e-06
1.55004e-06
1.12329e-07
1.51727e-06
-3.60559e-08
1.50217e-06
-6.01839e-07
1.54446e-06
5.67266e-07
1.51672e-06
-5.62649e-07
1.50756e-06
9.36106e-07
1.5144e-06
3.18316e-07
1.4886e-06
4.98525e-07
1.50283e-06
6.28009e-07
1.51606e-06
3.03535e-07
1.52439e-06
2.21027e-07
1.52267e-06
-9.55907e-08
1.5285e-06
-1.02926e-07
1.52178e-06
-2.01876e-07
1.52245e-06
-1.99e-07
1.52211e-06
-8.72479e-08
-1.1843e-07
1.51122e-06
1.63126e-06
9.21978e-07
1.60128e-06
-1.05969e-06
1.60315e-06
1.23067e-06
1.62419e-06
9.12955e-08
1.60213e-06
-1.4003e-08
1.58216e-06
-5.81861e-07
1.61655e-06
5.32871e-07
1.59712e-06
-5.43214e-07
1.58805e-06
9.45173e-07
1.59403e-06
3.12338e-07
1.57727e-06
5.15283e-07
1.58701e-06
6.18266e-07
1.60063e-06
2.89917e-07
1.60905e-06
2.12603e-07
1.60563e-06
-9.21613e-08
1.6087e-06
-1.06004e-07
1.60061e-06
-1.93782e-07
1.5984e-06
-1.96788e-07
1.5973e-06
-8.61513e-08
-1.07135e-07
1.58601e-06
1.70724e-06
9.12317e-07
1.68341e-06
-1.03586e-06
1.68745e-06
1.22662e-06
1.70189e-06
7.68556e-08
1.68768e-06
2.13402e-10
1.66729e-06
-5.61476e-07
1.69362e-06
5.06537e-07
1.67718e-06
-5.26765e-07
1.67185e-06
9.50504e-07
1.67744e-06
3.06746e-07
1.66816e-06
5.24557e-07
1.67604e-06
6.10393e-07
1.68872e-06
2.77234e-07
1.69619e-06
2.0513e-07
1.69153e-06
-8.74949e-08
1.69229e-06
-1.06766e-07
1.68305e-06
-1.84546e-07
1.67801e-06
-1.91743e-07
1.67587e-06
-8.40163e-08
-9.51434e-08
1.66388e-06
1.78716e-06
9.03878e-07
1.76809e-06
-1.01679e-06
1.77587e-06
1.21884e-06
1.78361e-06
6.91146e-08
1.77431e-06
9.50759e-09
1.75621e-06
-5.43377e-07
1.77536e-06
4.87388e-07
1.75891e-06
-5.10308e-07
1.75885e-06
9.50558e-07
1.76409e-06
3.01508e-07
1.7612e-06
5.2745e-07
1.76826e-06
6.03334e-07
1.7798e-06
2.65692e-07
1.78577e-06
1.99162e-07
1.78018e-06
-8.19072e-08
1.77905e-06
-1.0564e-07
1.76921e-06
-1.74701e-07
1.76176e-06
-1.84293e-07
1.75842e-06
-8.06727e-08
-8.24709e-08
1.74574e-06
1.87134e-06
8.96284e-07
1.85562e-06
-1.00107e-06
1.86738e-06
1.20708e-06
1.86956e-06
6.69359e-08
1.863e-06
1.60664e-08
1.84792e-06
-5.28294e-07
1.86141e-06
4.739e-07
1.8439e-06
-4.92801e-07
1.84929e-06
9.45164e-07
1.85368e-06
2.97118e-07
1.85646e-06
5.24666e-07
1.86302e-06
5.96779e-07
1.87349e-06
2.55226e-07
1.87778e-06
1.94872e-07
1.87153e-06
-7.56613e-08
1.86883e-06
-1.02942e-07
1.85879e-06
-1.64658e-07
1.84967e-06
-1.75176e-07
1.84508e-06
-7.60821e-08
-6.94452e-08
1.83205e-06
1.96003e-06
8.89097e-07
1.94628e-06
-9.87323e-07
1.96158e-06
1.19178e-06
1.95984e-06
6.86811e-08
1.95467e-06
2.12371e-08
1.94188e-06
-5.15509e-07
1.95154e-06
4.64243e-07
1.93292e-06
-4.74188e-07
1.94327e-06
9.34824e-07
1.94629e-06
2.94089e-07
1.95402e-06
5.16944e-07
1.96007e-06
5.90725e-07
1.9696e-06
2.45696e-07
1.97225e-06
1.92224e-07
1.96557e-06
-6.89807e-08
1.9616e-06
-9.89741e-08
1.9515e-06
-1.54556e-07
1.94151e-06
-1.65182e-07
1.93574e-06
-7.03185e-08
-5.65452e-08
1.92284e-06
2.0534e-06
8.8189e-07
2.04036e-06
-9.74288e-07
2.05852e-06
1.17363e-06
2.05447e-06
7.27235e-08
2.05e-06
2.57057e-08
2.03811e-06
-5.03619e-07
2.04575e-06
4.56611e-07
2.02621e-06
-4.54654e-07
2.04077e-06
9.20266e-07
2.04219e-06
2.92668e-07
2.05392e-06
5.05217e-07
2.0594e-06
5.85246e-07
2.06822e-06
2.36869e-07
2.0694e-06
1.91047e-07
2.06245e-06
-6.2034e-08
2.05759e-06
-9.41094e-08
2.04731e-06
-1.4428e-07
2.03715e-06
-1.55014e-07
2.03034e-06
-6.35098e-08
-4.41849e-08
2.01798e-06
2.15159e-06
8.74297e-07
2.13819e-06
-9.60885e-07
2.15853e-06
1.15329e-06
2.15351e-06
7.77533e-08
2.14951e-06
2.97042e-08
2.13708e-06
-4.91188e-07
2.14417e-06
4.49515e-07
2.12383e-06
-4.34315e-07
2.14189e-06
9.02214e-07
2.14163e-06
2.92925e-07
2.15636e-06
4.90488e-07
2.16122e-06
5.80388e-07
2.16967e-06
2.28414e-07
2.16968e-06
1.91039e-07
2.16255e-06
-5.49052e-08
2.15724e-06
-8.87955e-08
2.14652e-06
-1.33563e-07
2.13669e-06
-1.45187e-07
2.12907e-06
-5.58885e-08
-3.25158e-08
2.1174e-06
2.25474e-06
8.66041e-07
2.24017e-06
-9.46316e-07
2.26218e-06
1.13128e-06
2.25701e-06
8.29206e-08
2.25354e-06
3.31769e-08
2.23948e-06
-4.77126e-07
2.24705e-06
4.41938e-07
2.22593e-06
-4.13193e-07
2.24688e-06
8.81271e-07
2.24488e-06
2.94916e-07
2.26175e-06
4.73626e-07
2.26601e-06
5.7613e-07
2.27443e-06
2.19986e-07
2.2737e-06
1.91772e-07
2.26634e-06
-4.75436e-08
2.26108e-06
-8.35381e-08
2.24961e-06
-1.22091e-07
2.24042e-06
-1.35997e-07
2.23237e-06
-4.78418e-08
-2.13857e-08
2.22124e-06
2.36298e-06
8.56936e-07
2.34675e-06
-9.30084e-07
2.37006e-06
1.10797e-06
2.36514e-06
8.78441e-08
2.3624e-06
3.59127e-08
2.34606e-06
-4.60786e-07
2.35469e-06
4.33311e-07
2.33275e-06
-3.91257e-07
2.35615e-06
8.57879e-07
2.35234e-06
2.98723e-07
2.3707e-06
4.55264e-07
2.37444e-06
5.7239e-07
2.38307e-06
2.11363e-07
2.38212e-06
1.92715e-07
2.37432e-06
-3.97378e-08
2.36962e-06
-7.88405e-08
2.35717e-06
-1.09638e-07
2.34862e-06
-1.27455e-07
2.34069e-06
-3.9911e-08
-1.04684e-08
2.32978e-06
2.47646e-06
8.46867e-07
2.45832e-06
-9.11943e-07
2.48278e-06
1.08351e-06
2.4781e-06
9.25245e-08
2.47635e-06
3.76563e-08
2.45747e-06
-4.41901e-07
2.46741e-06
4.2337e-07
2.4446e-06
-3.68444e-07
2.47012e-06
8.32353e-07
2.46447e-06
3.04375e-07
2.48391e-06
4.35821e-07
2.48726e-06
5.69045e-07
2.49609e-06
2.02533e-07
2.49551e-06
1.93293e-07
2.48694e-06
-3.11685e-08
2.48319e-06
-7.50887e-08
2.46975e-06
-9.61953e-08
2.46155e-06
-1.19259e-07
2.45435e-06
-3.2707e-08
5.15565e-10
2.44336e-06
2.59538e-06
8.35778e-07
2.57526e-06
-8.91823e-07
2.60084e-06
1.05794e-06
2.59616e-06
9.72081e-08
2.59563e-06
3.81879e-08
2.57419e-06
-4.20467e-07
2.58555e-06
4.1201e-07
2.56177e-06
-3.44663e-07
2.58919e-06
8.04932e-07
2.5818e-06
3.11767e-07
2.60203e-06
4.15589e-07
2.60514e-06
5.65935e-07
2.61397e-06
1.93703e-07
2.61432e-06
1.9294e-07
2.60463e-06
-2.14709e-08
2.60203e-06
-7.24956e-08
2.58786e-06
-8.20182e-08
2.57941e-06
-1.10814e-07
2.57351e-06
-2.68068e-08
1.16159e-08
2.56241e-06
2.71996e-06
8.23648e-07
2.69788e-06
-8.69744e-07
2.72468e-06
1.03114e-06
2.71964e-06
1.02251e-07
2.72046e-06
3.73654e-08
2.69662e-06
-3.96626e-07
2.70942e-06
3.99211e-07
2.68458e-06
-3.19825e-07
2.71369e-06
7.75825e-07
2.70479e-06
3.20662e-07
2.72558e-06
3.94796e-07
2.72867e-06
5.62847e-07
2.73711e-06
1.85265e-07
2.73891e-06
1.91137e-07
2.72778e-06
-1.03347e-08
2.72632e-06
-7.10355e-08
2.71193e-06
-6.76274e-08
2.70248e-06
-1.01366e-07
2.69832e-06
-2.26459e-08
2.26276e-08
2.6873e-06
2.85044e-06
8.10476e-07
2.82646e-06
-8.45764e-07
2.85463e-06
1.00297e-06
2.84886e-06
1.08019e-07
2.8511e-06
3.51283e-08
2.82507e-06
-3.70602e-07
2.83928e-06
3.85008e-07
2.81333e-06
-2.93881e-07
2.84392e-06
7.4524e-07
2.83385e-06
3.3073e-07
2.85499e-06
3.73659e-07
2.85835e-06
5.59486e-07
2.86589e-06
1.77717e-07
2.86955e-06
1.87482e-07
2.85682e-06
2.39146e-09
2.85621e-06
-7.04172e-08
2.84229e-06
-5.37074e-08
2.83119e-06
-9.02684e-08
2.82882e-06
-2.02787e-08
3.30584e-08
2.81839e-06
2.98711e-06
7.96264e-07
2.96128e-06
-8.19938e-07
2.99098e-06
9.73266e-07
2.98417e-06
1.14828e-07
2.98782e-06
3.14799e-08
2.95986e-06
-3.42642e-07
2.97539e-06
3.69483e-07
2.94836e-06
-2.66856e-07
2.98019e-06
7.13416e-07
2.96933e-06
3.41586e-07
2.99056e-06
3.52435e-07
2.99457e-06
5.55469e-07
3.0007e-06
1.71592e-07
3.00645e-06
1.81731e-07
2.99222e-06
1.66236e-08
2.99186e-06
-7.00637e-08
2.97921e-06
-4.10557e-08
2.96606e-06
-7.71191e-08
2.9651e-06
-1.93166e-08
4.2199e-08
2.95596e-06
3.13026e-06
7.81012e-07
3.10262e-06
-7.923e-07
3.13399e-06
9.41893e-07
3.1259e-06
1.22916e-07
3.13092e-06
2.6465e-08
3.10128e-06
-3.12999e-07
3.11799e-06
3.52766e-07
3.09001e-06
-2.38868e-07
3.12277e-06
6.80649e-07
3.11156e-06
3.52801e-07
3.13256e-06
3.31436e-07
3.13768e-06
5.50347e-07
3.1419e-06
1.67373e-07
3.1498e-06
1.73827e-07
3.13438e-06
3.20475e-08
3.13353e-06
-6.9216e-08
3.12288e-06
-3.04047e-08
3.1077e-06
-6.19372e-08
3.10729e-06
-1.8914e-08
4.92669e-08
3.10023e-06
3.28021e-06
7.64712e-07
3.25078e-06
-7.62867e-07
3.28392e-06
9.08752e-07
3.2744e-06
1.32439e-07
3.28071e-06
2.0154e-08
3.24963e-06
-2.81921e-07
3.26736e-06
3.35035e-07
3.23862e-06
-2.10131e-07
3.27196e-06
6.47309e-07
3.26085e-06
3.63912e-07
3.28125e-06
3.1104e-07
3.28792e-06
5.43676e-07
3.28988e-06
1.65412e-07
3.29979e-06
1.63919e-07
3.28369e-06
4.81476e-08
3.28152e-06
-6.7049e-08
3.27341e-06
-2.22921e-08
3.25664e-06
-4.51666e-08
3.25568e-06
-1.79569e-08
5.36189e-08
3.25133e-06
3.4373e-06
7.47347e-07
3.40607e-06
-7.31638e-07
3.44102e-06
8.73797e-07
3.42999e-06
1.43468e-07
3.43751e-06
1.26349e-08
3.40524e-06
-2.49649e-07
3.42375e-06
3.16523e-07
3.39459e-06
-1.80968e-07
3.42804e-06
6.13855e-07
3.41754e-06
3.74417e-07
3.43691e-06
2.91664e-07
3.44552e-06
5.35067e-07
3.44505e-06
1.65888e-07
3.45662e-06
1.52342e-07
3.44049e-06
6.42828e-08
3.43627e-06
-6.2833e-08
3.43089e-06
-1.69115e-08
3.41334e-06
-2.76127e-08
3.41075e-06
-1.53658e-08
5.5025e-08
3.40934e-06
3.60186e-06
7.28897e-07
3.56884e-06
-6.98612e-07
3.6056e-06
8.37032e-07
3.59306e-06
1.5601e-07
3.60168e-06
4.01482e-09
3.56847e-06
-2.16439e-07
3.58747e-06
2.97526e-07
3.5583e-06
-1.51804e-07
3.59132e-06
5.80835e-07
3.58193e-06
3.83805e-07
3.59989e-06
2.73704e-07
3.61069e-06
5.24275e-07
3.60781e-06
1.68765e-07
3.62054e-06
1.39611e-07
3.6051e-06
7.97211e-08
3.59827e-06
-5.60036e-08
3.59546e-06
-1.40988e-08
3.57811e-06
-1.02652e-08
3.5731e-06
-1.0354e-08
5.37887e-08
3.57434e-06
3.77426e-06
7.09342e-07
3.73945e-06
-6.63798e-07
3.77798e-06
7.98501e-07
3.76397e-06
1.70015e-07
3.77356e-06
-5.57198e-09
3.7397e-06
-1.82582e-07
3.75881e-06
2.78417e-07
3.73019e-06
-1.23185e-07
3.76215e-06
5.48872e-07
3.75437e-06
3.91587e-07
3.77059e-06
2.57482e-07
3.78363e-06
5.11237e-07
3.77858e-06
1.73815e-07
3.79186e-06
1.26334e-07
3.77782e-06
9.37567e-08
3.7681e-06
-4.62751e-08
3.76731e-06
-1.33153e-08
3.75123e-06
5.81502e-09
3.74343e-06
-2.55424e-09
5.07709e-08
3.74645e-06
3.95486e-06
6.88666e-07
3.91829e-06
-6.27225e-07
3.95851e-06
7.58287e-07
3.94313e-06
1.85389e-07
3.95351e-06
-1.59538e-08
3.91935e-06
-1.48422e-07
3.93812e-06
2.59649e-07
3.91068e-06
-9.57401e-08
3.94097e-06
5.18583e-07
3.93517e-06
3.97387e-07
3.94946e-06
2.43189e-07
3.96462e-06
4.96074e-07
3.95778e-06
1.8066e-07
3.97096e-06
1.13148e-07
3.95892e-06
1.05802e-07
3.94631e-06
-3.36643e-08
3.94673e-06
-1.37377e-08
3.93292e-06
1.96274e-08
3.92243e-06
7.93844e-09
4.7259e-08
3.92594e-06
4.14406e-06
6.6686e-07
4.10578e-06
-5.88948e-07
4.14756e-06
7.16504e-07
4.13096e-06
2.01991e-07
4.14191e-06
-2.69076e-08
4.10786e-06
-1.14371e-07
4.12576e-06
2.41748e-07
4.10017e-06
-7.01473e-08
4.12822e-06
4.90538e-07
4.12463e-06
4.00971e-07
4.13697e-06
2.30851e-07
4.15398e-06
4.79059e-07
4.14579e-06
1.88854e-07
4.15828e-06
1.0066e-07
4.14866e-06
1.15422e-07
4.13346e-06
-1.84686e-08
4.13411e-06
-1.43836e-08
4.12329e-06
3.04475e-08
4.11073e-06
2.0499e-08
4.47253e-08
4.11326e-06
4.34223e-06
6.43929e-07
4.30233e-06
-5.49048e-07
4.34554e-06
6.73299e-07
4.32789e-06
2.19635e-07
4.33914e-06
-3.81529e-08
4.30568e-06
-8.09075e-08
4.32211e-06
2.25314e-07
4.29903e-06
-4.70624e-08
4.32442e-06
4.65145e-07
4.32308e-06
4.02308e-07
4.33362e-06
2.20317e-07
4.35211e-06
4.60569e-07
4.343e-06
1.97965e-07
4.35427e-06
8.93892e-08
4.34733e-06
1.22358e-07
4.33007e-06
-1.20722e-09
4.32994e-06
-1.42535e-08
4.32244e-06
3.79433e-08
4.30893e-06
3.40114e-08
4.44993e-08
4.30916e-06
4.54981e-06
6.19888e-07
4.5084e-06
-5.07633e-07
4.55284e-06
6.28856e-07
4.5344e-06
2.38073e-07
4.54558e-06
-4.93307e-08
4.51326e-06
-4.85886e-08
4.52757e-06
2.11004e-07
4.50754e-06
-2.70348e-08
4.53014e-06
4.42554e-07
4.53085e-06
4.01594e-07
4.53986e-06
2.11311e-07
4.55945e-06
4.40979e-07
4.54978e-06
2.07629e-07
4.55939e-06
7.97779e-08
4.55529e-06
1.26461e-07
4.5366e-06
1.74864e-08
4.5348e-06
-1.24529e-08
4.5306e-06
4.21389e-08
4.5174e-06
4.72093e-08
4.73301e-08
4.51457e-06
4.76724e-06
5.94768e-07
4.72444e-06
-4.64837e-07
4.76989e-06
5.83409e-07
4.75098e-06
2.56985e-07
4.76166e-06
-6.00116e-08
4.73109e-06
-1.80252e-08
4.74266e-06
1.99438e-07
4.72604e-06
-1.0411e-08
4.74595e-06
4.22637e-07
4.74829e-06
3.99255e-07
4.75614e-06
2.03461e-07
4.77649e-06
4.20633e-07
4.76658e-06
2.17537e-07
4.77411e-06
7.22466e-08
4.7729e-06
1.27671e-07
4.75349e-06
3.69019e-08
4.74938e-06
-8.34916e-09
4.74797e-06
4.35547e-08
4.73639e-06
5.87864e-08
5.31844e-08
4.73053e-06
4.99495e-06
5.68613e-07
4.95094e-06
-4.20829e-07
4.99711e-06
5.37246e-07
4.97812e-06
2.75969e-07
4.98781e-06
-6.96969e-08
4.95965e-06
1.01332e-08
4.96796e-06
1.91131e-07
4.95481e-06
2.7393e-09
4.97248e-06
4.04964e-07
4.97585e-06
3.95883e-07
4.9829e-06
1.96412e-07
5.00375e-06
3.99785e-07
4.99384e-06
2.27442e-07
4.99893e-06
6.71597e-08
5.00056e-06
1.26041e-07
4.98118e-06
5.62837e-08
4.97447e-06
-1.64243e-09
4.97493e-06
4.30922e-08
4.96597e-06
6.7753e-08
6.12275e-08
4.95792e-06
5.23344e-06
5.41489e-07
5.18843e-06
-3.75816e-07
5.23495e-06
4.90725e-07
5.21638e-06
2.94542e-07
5.22451e-06
-7.7835e-08
5.19942e-06
3.52313e-08
5.20411e-06
1.86441e-07
5.1942e-06
1.26492e-08
5.2103e-06
3.88862e-07
5.21406e-06
3.92123e-07
5.22051e-06
1.89961e-07
5.24178e-06
3.78516e-07
5.23206e-06
2.37159e-07
5.23441e-06
6.48098e-08
5.23864e-06
1.21808e-07
5.22016e-06
7.47705e-08
5.21078e-06
7.73486e-09
5.21211e-06
4.17658e-08
5.20619e-06
7.36714e-08
7.01479e-08
5.19727e-06
5.4832e-06
5.13477e-07
5.43743e-06
-3.30049e-07
5.48389e-06
4.44273e-07
5.46629e-06
3.12136e-07
5.47228e-06
-8.38233e-08
5.4509e-06
5.66112e-08
5.45181e-06
1.85534e-07
5.44458e-06
1.98755e-08
5.45994e-06
3.73498e-07
5.46354e-06
3.88529e-07
5.46937e-06
1.84132e-07
5.4911e-06
3.56788e-07
5.48178e-06
2.46476e-07
5.48114e-06
6.54471e-08
5.48758e-06
1.15366e-07
5.47086e-06
9.1495e-08
5.45898e-06
1.96132e-08
5.46027e-06
4.04797e-08
5.45712e-06
7.68145e-08
7.8467e-08
5.44881e-06
5.74475e-06
4.84684e-07
5.69853e-06
-2.8383e-07
5.74441e-06
3.98394e-07
5.72844e-06
3.2811e-07
5.73166e-06
-8.70452e-08
5.71458e-06
7.36878e-08
5.7118e-06
1.88313e-07
5.70646e-06
2.52155e-08
5.72189e-06
3.58071e-07
5.72498e-06
3.85437e-07
5.72996e-06
1.79158e-07
5.75217e-06
3.34569e-07
5.74361e-06
2.55043e-07
5.73975e-06
6.93086e-08
5.74778e-06
1.07335e-07
5.73373e-06
1.05546e-07
5.71974e-06
3.35952e-08
5.72012e-06
4.01075e-08
5.71929e-06
7.7643e-08
8.51688e-08
5.71259e-06
6.01864e-06
4.55238e-07
5.97231e-06
-2.37503e-07
6.01705e-06
3.53659e-07
6.00338e-06
3.41775e-07
6.00325e-06
-8.69106e-08
5.99081e-06
8.61212e-08
5.98488e-06
1.9425e-07
5.98044e-06
2.96503e-08
5.99658e-06
3.41935e-07
5.99913e-06
3.82884e-07
6.00279e-06
1.75505e-07
6.02548e-06
3.11877e-07
6.01813e-06
2.62388e-07
6.01089e-06
7.65509e-08
6.01977e-06
9.84528e-08
6.00914e-06
1.16182e-07
5.99363e-06
4.90989e-08
5.9925e-06
4.12364e-08
5.99329e-06
7.68588e-08
8.97687e-08
5.98869e-06
6.30544e-06
4.25291e-07
6.25939e-06
-1.91457e-07
6.30236e-06
3.10684e-07
6.29169e-06
3.52443e-07
6.28767e-06
-8.28893e-08
6.27992e-06
9.38761e-08
6.27169e-06
2.02476e-07
6.26719e-06
3.41502e-08
6.28446e-06
3.24672e-07
6.28665e-06
3.8069e-07
6.28846e-06
1.7369e-07
6.31138e-06
2.88959e-07
6.30586e-06
2.6791e-07
6.29544e-06
8.69691e-08
6.30417e-06
8.97218e-08
6.29744e-06
1.22913e-07
6.28127e-06
6.5275e-08
6.27816e-06
4.43383e-08
6.27999e-06
7.50354e-08
9.2412e-08
6.27734e-06
6.60574e-06
3.95018e-07
6.56039e-06
-1.46108e-07
6.60102e-06
2.7006e-07
6.59392e-06
3.59543e-07
6.5856e-06
-7.4567e-08
6.58226e-06
9.72123e-08
6.57267e-06
2.12063e-07
6.56718e-06
3.96438e-08
6.58565e-06
3.06199e-07
6.58803e-06
3.78307e-07
6.58754e-06
1.74181e-07
6.61027e-06
2.66232e-07
6.60725e-06
2.7093e-07
6.59425e-06
9.99653e-08
6.60165e-06
8.23274e-08
6.59901e-06
1.25555e-07
6.58321e-06
8.10749e-08
6.57789e-06
4.9653e-08
6.58013e-06
7.27967e-08
9.33605e-08
6.57918e-06
6.92019e-06
3.64618e-07
6.87599e-06
-1.01904e-07
6.91368e-06
2.32367e-07
6.91054e-06
3.62681e-07
6.89768e-06
-6.17099e-08
6.89817e-06
9.67243e-08
6.88815e-06
2.22081e-07
6.8806e-06
4.71968e-08
6.90033e-06
2.86466e-07
6.90368e-06
3.74962e-07
6.90063e-06
1.77228e-07
6.92263e-06
2.44236e-07
6.92273e-06
2.70826e-07
6.90814e-06
1.14562e-07
6.9131e-06
7.73644e-08
6.91428e-06
1.24374e-07
6.89999e-06
9.5361e-08
6.89243e-06
5.72126e-08
6.89448e-06
7.07487e-08
9.2852e-08
6.89499e-06
7.24944e-06
3.34316e-07
7.20686e-06
-5.93266e-08
7.24103e-06
1.98197e-07
7.24214e-06
3.61572e-07
7.22452e-06
-4.40893e-08
7.22817e-06
9.30733e-08
7.21914e-06
2.31112e-07
7.20882e-06
5.75125e-08
7.22937e-06
2.65925e-07
7.2343e-06
3.70025e-07
7.22872e-06
1.82808e-07
7.24925e-06
2.23708e-07
7.25278e-06
2.673e-07
7.23775e-06
1.29592e-07
7.23962e-06
7.54887e-08
7.24379e-06
1.20206e-07
7.23207e-06
1.07079e-07
7.22268e-06
6.66079e-08
7.22374e-06
6.96802e-08
9.10226e-08
7.22557e-06
7.59418e-06
3.04364e-07
7.55377e-06
-1.89141e-08
7.5838e-06
1.6816e-07
7.58965e-06
3.55728e-07
7.56724e-06
-2.16823e-08
7.57307e-06
8.72442e-08
7.56626e-06
2.3792e-07
7.55315e-06
7.06272e-08
7.57357e-06
2.45496e-07
7.58055e-06
3.63053e-07
7.573e-06
1.9036e-07
7.59115e-06
2.05555e-07
7.59798e-06
2.60468e-07
7.5837e-06
1.4387e-07
7.58232e-06
7.6874e-08
7.58828e-06
1.1424e-07
7.57983e-06
1.15537e-07
7.56942e-06
7.70182e-08
7.56885e-06
7.02442e-08
8.82847e-08
7.57159e-06
7.95513e-06
2.75041e-07
7.91747e-06
1.87464e-08
7.94278e-06
1.42849e-07
7.9538e-06
3.44709e-07
7.92777e-06
4.35032e-09
7.93437e-06
8.06418e-08
7.93105e-06
2.41239e-07
7.91579e-06
8.5889e-08
7.93377e-06
2.27516e-07
7.94289e-06
3.53931e-07
7.9344e-06
1.9885e-07
7.94951e-06
1.90445e-07
7.95914e-06
2.50842e-07
7.94653e-06
1.56481e-07
7.9422e-06
8.12005e-08
7.94867e-06
1.07777e-07
7.94374e-06
1.2046e-07
7.9333e-06
8.74553e-08
7.93086e-06
7.26888e-08
8.53597e-08
7.93379e-06
8.33308e-06
2.46645e-07
8.29875e-06
5.30752e-08
8.31893e-06
1.22672e-07
8.33503e-06
3.28608e-07
8.30773e-06
3.16437e-08
8.31423e-06
7.41453e-08
8.31417e-06
2.41296e-07
8.2953e-06
1.04759e-07
8.30981e-06
2.13013e-07
8.32198e-06
3.4176e-07
8.31379e-06
2.07034e-07
8.32546e-06
1.78774e-07
8.33712e-06
2.39185e-07
8.32679e-06
1.66811e-07
8.32014e-06
8.78486e-08
8.32602e-06
1.01901e-07
8.3244e-06
1.22081e-07
8.31492e-06
9.69293e-08
8.31082e-06
7.67909e-08
8.30374e-08
8.31314e-06
8.72881e-06
2.19493e-07
8.69837e-06
8.35213e-08
8.71325e-06
1.07792e-07
8.73447e-06
3.0739e-07
8.70531e-06
6.07978e-08
8.70407e-06
7.53871e-08
8.70815e-06
2.37219e-07
8.69118e-06
1.2173e-07
8.70353e-06
2.00661e-07
8.71863e-06
3.2666e-07
8.71182e-06
2.13847e-07
8.72013e-06
1.70463e-07
8.7329e-06
2.26411e-07
8.72525e-06
1.74464e-07
8.71699e-06
9.61059e-08
8.72145e-06
9.74409e-08
8.72253e-06
1.20999e-07
8.71478e-06
1.04685e-07
8.70959e-06
8.19817e-08
8.18989e-08
8.71072e-06
9.1432e-06
1.9391e-07
9.11722e-06
1.09502e-07
9.12626e-06
9.87512e-08
9.15004e-06
2.83613e-07
9.12118e-06
8.9654e-08
9.11673e-06
7.98425e-08
9.12465e-06
2.29296e-07
9.10927e-06
1.3711e-07
9.11756e-06
1.92371e-07
9.13383e-06
3.10388e-07
9.12898e-06
2.18703e-07
9.1345e-06
1.64943e-07
9.14747e-06
2.13434e-07
9.14255e-06
1.79386e-07
9.13348e-06
1.0518e-07
9.13599e-06
9.4924e-08
9.13906e-06
1.1793e-07
9.13348e-06
1.10264e-07
9.1279e-06
8.7568e-08
8.2054e-08
9.12774e-06
9.57717e-06
1.702e-07
9.55601e-06
1.30665e-07
9.55953e-06
9.523e-08
9.58581e-06
2.57334e-07
9.56025e-06
1.15205e-07
9.55092e-06
8.91773e-08
9.56016e-06
2.20057e-07
9.54766e-06
1.49611e-07
9.55264e-06
1.87388e-07
9.56868e-06
2.94351e-07
9.56596e-06
2.21424e-07
9.56933e-06
1.61569e-07
9.58189e-06
2.0088e-07
9.57961e-06
1.81661e-07
9.57048e-06
1.14313e-07
9.57086e-06
9.45442e-08
9.57508e-06
1.13711e-07
9.57183e-06
1.13508e-07
9.56643e-06
9.29701e-08
8.32368e-08
9.56525e-06
1.00317e-05
1.48645e-07
1.00157e-05
1.46637e-07
1.00144e-05
9.65499e-08
1.00418e-05
2.29948e-07
1.00211e-05
1.35904e-07
1.00073e-05
1.02996e-07
1.00158e-05
2.11517e-07
1.00067e-05
1.58726e-07
1.00095e-05
1.84574e-07
1.00246e-05
2.79304e-07
1.00236e-05
2.22406e-07
1.00254e-05
1.59732e-07
1.00372e-05
1.89105e-07
1.00373e-05
1.81585e-07
1.00288e-05
1.228e-07
1.00272e-05
9.61229e-08
1.00316e-05
1.09309e-07
1.00307e-05
1.14417e-07
1.0026e-05
9.76783e-08
8.51173e-08
1.00241e-05
1.05078e-05
1.29474e-07
1.04973e-05
1.57107e-07
1.04919e-05
1.01965e-07
1.05188e-05
2.0306e-07
1.05042e-05
1.50491e-07
1.04869e-05
1.2031e-07
1.0493e-05
2.05441e-07
1.0487e-05
1.64729e-07
1.04889e-05
1.82679e-07
1.05026e-05
2.65611e-07
1.05029e-05
2.22081e-07
1.05036e-05
1.58999e-07
1.05144e-05
1.78353e-07
1.05165e-05
1.79431e-07
1.05092e-05
1.30131e-07
1.05061e-05
9.92224e-08
1.05099e-05
1.05534e-07
1.0511e-05
1.13335e-07
1.05075e-05
1.01184e-07
8.7452e-08
1.05051e-05
1.10067e-05
1.12838e-07
1.10017e-05
1.62048e-07
1.09932e-05
1.10435e-07
1.10179e-05
1.78454e-07
1.10097e-05
1.58598e-07
1.09906e-05
1.39477e-07
1.09933e-05
2.02763e-07
1.09895e-05
1.68486e-07
1.09914e-05
1.80756e-07
1.10039e-05
2.53152e-07
1.10052e-05
2.20792e-07
1.1005e-05
1.59167e-07
1.10145e-05
1.68833e-07
1.10184e-05
1.75535e-07
1.10126e-05
1.35927e-07
1.10086e-05
1.03281e-07
1.10112e-05
1.02866e-07
1.10137e-05
1.10911e-07
1.10117e-05
1.0312e-07
8.98336e-08
1.10093e-05
1.15294e-05
9.87946e-08
1.15297e-05
1.61721e-07
1.15193e-05
1.20822e-07
1.154e-05
1.57796e-07
1.15379e-05
1.6073e-07
1.15189e-05
1.58401e-07
1.15181e-05
2.03611e-07
1.15155e-05
1.71121e-07
1.15179e-05
1.78329e-07
1.15295e-05
2.41554e-07
1.15316e-05
2.18726e-07
1.15306e-05
1.60089e-07
1.15388e-05
1.60698e-07
1.1544e-05
1.70276e-07
1.154e-05
1.39956e-07
1.15356e-05
1.07705e-07
1.1537e-05
1.01421e-07
1.154e-05
1.07906e-07
1.15396e-05
1.03499e-07
9.17419e-08
1.15377e-05
1.20773e-05
8.73129e-08
1.20823e-05
1.56726e-07
1.20711e-05
1.32007e-07
1.20863e-05
1.42628e-07
1.20892e-05
1.57819e-07
1.20728e-05
1.7478e-07
1.20689e-05
2.07538e-07
1.20663e-05
1.73701e-07
1.20693e-05
1.75358e-07
1.20804e-05
2.30461e-07
1.20833e-05
2.1584e-07
1.20818e-05
1.61546e-07
1.20884e-05
1.54127e-07
1.20945e-05
1.64129e-07
1.20923e-05
1.42127e-07
1.20881e-05
1.11982e-07
1.20884e-05
1.01048e-07
1.20914e-05
1.04906e-07
1.20923e-05
1.0266e-07
9.27602e-08
1.20913e-05
1.26517e-05
7.82456e-08
1.26598e-05
1.48536e-07
1.26488e-05
1.43081e-07
1.26578e-05
1.33566e-07
1.26649e-05
1.50774e-07
1.2653e-05
1.86691e-07
1.26469e-05
2.13589e-07
1.26436e-05
1.77025e-07
1.26467e-05
1.72211e-07
1.26576e-05
2.19621e-07
1.26613e-05
2.12073e-07
1.26597e-05
1.63164e-07
1.26646e-05
1.4922e-07
1.26711e-05
1.57616e-07
1.26708e-05
1.42477e-07
1.26671e-05
1.15684e-07
1.26667e-05
1.01494e-07
1.26694e-05
1.02204e-07
1.2671e-05
1.01044e-07
9.27884e-08
1.26709e-05
1.32539e-05
7.13253e-08
1.32631e-05
1.39327e-07
1.32536e-05
1.52501e-07
1.32566e-05
1.30644e-07
1.32663e-05
1.40998e-07
1.32601e-05
1.92936e-07
1.32534e-05
2.20335e-07
1.32489e-05
1.81494e-07
1.32516e-05
1.69508e-07
1.32622e-05
2.08991e-07
1.3267e-05
2.07261e-07
1.32656e-05
1.64602e-07
1.3269e-05
1.45849e-07
1.32753e-05
1.51258e-07
1.32766e-05
1.41221e-07
1.32738e-05
1.18426e-07
1.32728e-05
1.02512e-07
1.32751e-05
9.9886e-08
1.32772e-05
9.90022e-08
9.207e-08
1.32779e-05
1.38854e-05
6.61125e-08
1.38956e-05
1.29123e-07
1.38885e-05
1.5962e-07
1.38856e-05
1.33519e-07
1.38947e-05
1.31892e-07
1.38948e-05
1.92836e-07
1.38893e-05
2.2585e-07
1.38837e-05
1.87104e-07
1.38853e-05
1.67848e-07
1.38956e-05
1.98719e-07
1.39014e-05
2.01425e-07
1.39006e-05
1.65446e-07
1.39027e-05
1.43718e-07
1.39085e-05
1.45507e-07
1.3911e-05
1.38724e-07
1.39094e-05
1.19951e-07
1.39082e-05
1.03758e-07
1.391e-05
9.80503e-08
1.39124e-05
9.66699e-08
9.09004e-08
1.39135e-05
1.45476e-05
6.21756e-08
1.45568e-05
1.19904e-07
1.45533e-05
1.63098e-07
1.45472e-05
1.39683e-07
1.45522e-05
1.26916e-07
1.4558e-05
1.86948e-07
1.45556e-05
2.28334e-07
1.45494e-05
1.93296e-07
1.45496e-05
1.67572e-07
1.45591e-05
1.89233e-07
1.45659e-05
1.9465e-07
1.4566e-05
1.65388e-07
1.45673e-05
1.42421e-07
1.45722e-05
1.40578e-07
1.45754e-05
1.35482e-07
1.45752e-05
1.20217e-07
1.45742e-05
1.04766e-07
1.45754e-05
9.67914e-08
1.4578e-05
9.41169e-08
8.94229e-08
1.45794e-05
1.5242e-05
5.90865e-08
1.52502e-05
1.1172e-07
1.52497e-05
1.63507e-07
1.52424e-05
1.46993e-07
1.52427e-05
1.26649e-07
1.52514e-05
1.78296e-07
1.5253e-05
2.26709e-07
1.52473e-05
1.98929e-07
1.52462e-05
1.68697e-07
1.52543e-05
1.81115e-07
1.52619e-05
1.87137e-07
1.5263e-05
1.64245e-07
1.52639e-05
1.41512e-07
1.5268e-05
1.36463e-07
1.52716e-05
1.31924e-07
1.52724e-05
1.194e-07
1.5272e-05
1.05168e-07
1.52728e-05
9.59948e-08
1.52753e-05
9.15645e-08
8.75884e-08
1.52772e-05
1.59699e-05
5.65093e-08
1.59766e-05
1.04999e-07
1.59789e-05
1.61248e-07
1.59721e-05
1.53778e-07
1.59686e-05
1.30112e-07
1.59769e-05
1.69993e-07
1.59826e-05
2.21027e-07
1.59788e-05
2.02711e-07
1.59766e-05
1.70936e-07
1.59831e-05
1.74659e-07
1.59908e-05
1.79427e-07
1.59931e-05
1.61917e-07
1.5994e-05
1.40614e-07
1.59975e-05
1.32999e-07
1.60011e-05
1.28301e-07
1.60027e-05
1.17826e-07
1.6003e-05
1.04781e-07
1.60037e-05
9.53467e-08
1.6006e-05
8.92785e-08
8.53365e-08
1.60082e-05
1.67329e-05
5.42348e-08
1.67376e-05
1.00282e-07
1.6742e-05
1.56873e-07
1.6737e-05
1.587e-07
1.67313e-05
1.35854e-07
1.67374e-05
1.63909e-07
1.6746e-05
2.1239e-07
1.67449e-05
2.03799e-07
1.67423e-05
1.73557e-07
1.67471e-05
1.6987e-07
1.67544e-05
1.72145e-07
1.67578e-05
1.58506e-07
1.67591e-05
1.39329e-07
1.6762e-05
1.30074e-07
1.67656e-05
1.24667e-07
1.67677e-05
1.15767e-07
1.67688e-05
1.03714e-07
1.67697e-05
9.4435e-08
1.67716e-05
8.73815e-08
8.28005e-08
1.67741e-05
1.75325e-05
5.21325e-08
1.75361e-05
9.66374e-08
1.75412e-05
1.51771e-07
1.75384e-05
1.61515e-07
1.75318e-05
1.42411e-07
1.75352e-05
1.60498e-07
1.75451e-05
2.0257e-07
1.75468e-05
2.02019e-07
1.75449e-05
1.75529e-07
1.75481e-05
1.66631e-07
1.75546e-05
1.65623e-07
1.75587e-05
1.54423e-07
1.75606e-05
1.37402e-07
1.75633e-05
1.27434e-07
1.75668e-05
1.21117e-07
1.75693e-05
1.13286e-07
1.75708e-05
1.02207e-07
1.75722e-05
9.30273e-08
1.7574e-05
8.56583e-08
8.03041e-08
1.75765e-05
1.83703e-05
5.01673e-08
1.8373e-05
9.39062e-08
1.83783e-05
1.46473e-07
1.83776e-05
1.62293e-07
1.83714e-05
1.48535e-07
1.83726e-05
1.59307e-07
1.83819e-05
1.93299e-07
1.83862e-05
1.9771e-07
1.83856e-05
1.76096e-07
1.83878e-05
1.64437e-07
1.83934e-05
1.60038e-07
1.83977e-05
1.50109e-07
1.84003e-05
1.34849e-07
1.8403e-05
1.2475e-07
1.84064e-05
1.17683e-07
1.84093e-05
1.10422e-07
1.84111e-05
1.00372e-07
1.84129e-05
9.12223e-08
1.84148e-05
8.38067e-08
7.7975e-08
1.84171e-05
1.92482e-05
4.83437e-08
1.92505e-05
9.16617e-08
1.92555e-05
1.41476e-07
1.92563e-05
1.61476e-07
1.92515e-05
1.53329e-07
1.92512e-05
1.59616e-07
1.9259e-05
1.85491e-07
1.9265e-05
1.91734e-07
1.9266e-05
1.75026e-07
1.9268e-05
1.62484e-07
1.92726e-05
1.55456e-07
1.92769e-05
1.45799e-07
1.92799e-05
1.31865e-07
1.92828e-05
1.21851e-07