/*--------------------------------*- C++ -*----------------------------------*\
| =========                 |                                                 |
| \\      /  F ield         | OpenFOAM: The Open Source CFD Toolbox           |
|  \\    /   O peration     | Version:  3.0.1                                 |
|   \\  /    A nd           | Web:      www.OpenFOAM.org                      |
|    \\/     M anipulation  |                                                 |
\*---------------------------------------------------------------------------*/
FoamFile
{
    version     2.0;
    format      ascii;
    class       volVectorField;
    location    "3.9";
    object      U;
}
// * * * * * * * * * * * * * * * * * * * * * * * * * * * * * * * * * * * * * //

dimensions      [0 1 -1 0 0 0 0];

internalField   nonuniform List<vector> 
9600
(
(0.943834 0.0105167 0)
(1.08546 -0.015905 0)
(0.857348 0.0169128 0)
(1.1559 0.00198509 0)
(0.850854 -0.00592178 0)
(1.01428 -0.00712293 0)
(0.950822 0.0151926 0)
(1.09261 -0.0190939 0)
(0.792509 0.0217596 0)
(1.17349 0.00391397 0)
(0.725087 0.00858725 0)
(1.16394 0.021716 0)
(0.780238 0.00529207 0)
(1.09373 0.0107729 0)
(0.851384 -0.00408012 0)
(1.07213 -0.0015047 0)
(0.863372 -0.00907223 0)
(1.0837 -0.00634825 0)
(0.859624 -0.00462316 0)
(1.10497 -0.00885484 0)
(0.946382 0.0102805 0)
(1.079 -0.0150828 0)
(0.86129 0.0164031 0)
(1.14161 0.00233344 0)
(0.863387 -0.00469392 0)
(1.00653 -0.0080966 0)
(0.95342 0.0140472 0)
(1.0832 -0.0167884 0)
(0.799259 0.0208375 0)
(1.15456 0.00579047 0)
(0.746359 0.00852448 0)
(1.13314 0.0212836 0)
(0.835223 0.00646245 0)
(1.04765 0.00967363 0)
(0.912812 -0.00361574 0)
(1.01833 -0.00175631 0)
(0.937963 -0.00911907 0)
(1.00792 -0.00670396 0)
(0.960568 -0.00435928 0)
(0.993142 -0.0101374 0)
(0.951404 0.0100588 0)
(1.07049 -0.0143561 0)
(0.870863 0.0156793 0)
(1.11799 0.00248179 0)
(0.887258 -0.00372151 0)
(0.993039 -0.00883222 0)
(0.957954 0.0131348 0)
(1.06965 -0.0148898 0)
(0.818594 0.0194911 0)
(1.11933 0.0067257 0)
(0.794815 0.00834947 0)
(1.07171 0.0201594 0)
(0.900708 0.00774038 0)
(0.996525 0.00831209 0)
(0.952503 -0.00315262 0)
(0.984005 -0.00242984 0)
(0.965122 -0.00882007 0)
(0.979934 -0.0073999 0)
(0.977297 -0.00432691 0)
(0.980419 -0.00847782 0)
(0.958389 0.009881 0)
(1.06069 -0.0136911 0)
(0.885966 0.015154 0)
(1.08946 0.00245326 0)
(0.917934 -0.00281213 0)
(0.978785 -0.00930723 0)
(0.963179 0.0122958 0)
(1.05475 -0.01328 0)
(0.849576 0.0185583 0)
(1.0777 0.00713695 0)
(0.854215 0.00883797 0)
(1.00964 0.0186141 0)
(0.943912 0.00865915 0)
(0.970728 0.00755465 0)
(0.965282 -0.00310071 0)
(0.97583 -0.00275783 0)
(0.970739 -0.00866633 0)
(0.975836 -0.00787308 0)
(0.977587 -0.00415402 0)
(0.980037 -0.00772945 0)
(0.966577 0.00971954 0)
(1.05005 -0.0130845 0)
(0.90503 0.0148609 0)
(1.06117 0.00225943 0)
(0.948092 -0.00195919 0)
(0.969313 -0.00955033 0)
(0.967701 0.0114145 0)
(1.0415 -0.0120071 0)
(0.885211 0.0182096 0)
(1.04107 0.00719624 0)
(0.904849 0.00977978 0)
(0.971264 0.0173616 0)
(0.964433 0.0090375 0)
(0.967604 0.00724124 0)
(0.971028 -0.00318245 0)
(0.977238 -0.0030482 0)
(0.976336 -0.00846133 0)
(0.976982 -0.00819745 0)
(0.979898 -0.00404829 0)
(0.981113 -0.00723539 0)
(0.975089 0.00956907 0)
(1.03921 -0.012552 0)
(0.925578 0.014718 0)
(1.03786 0.00194818 0)
(0.971932 -0.00124144 0)
(0.967264 -0.00956088 0)
(0.971045 0.010561 0)
(1.03139 -0.0110794 0)
(0.917127 0.0182144 0)
(1.01638 0.00706889 0)
(0.939289 0.0107325 0)
(0.95881 0.0166085 0)
(0.974132 0.0089408 0)
(0.974107 0.00703611 0)
(0.978231 -0.00320789 0)
(0.981329 -0.00337096 0)
(0.982082 -0.00823359 0)
(0.980296 -0.0083817 0)
(0.982375 -0.00405023 0)
(0.983356 -0.00672901 0)
(0.983101 0.00943316 0)
(1.0289 -0.0121063 0)
(0.945157 0.0146657 0)
(1.02193 0.00160188 0)
(0.987454 -0.000697343 0)
(0.971261 -0.00938154 0)
(0.97405 0.00979601 0)
(1.02403 -0.0104644 0)
(0.940537 0.0183834 0)
(1.00384 0.00691289 0)
(0.960319 0.0114601 0)
(0.961655 0.0161724 0)
(0.981341 0.00861086 0)
(0.982435 0.00680312 0)
(0.986127 -0.00316319 0)
(0.986591 -0.0036346 0)
(0.98665 -0.00798677 0)
(0.983895 -0.00845677 0)
(0.98437 -0.00407623 0)
(0.985052 -0.00620309 0)
(0.989995 0.00931344 0)
(1.01977 -0.0117453 0)
(0.962071 0.0146528 0)
(1.01301 0.00129362 0)
(0.99588 -0.000319978 0)
(0.977864 -0.00908925 0)
(0.977957 0.00915109 0)
(1.01816 -0.0100582 0)
(0.955527 0.0186032 0)
(0.999604 0.00678199 0)
(0.973387 0.0119433 0)
(0.969925 0.015889 0)
(0.988535 0.00823722 0)
(0.990129 0.00654579 0)
(0.993101 -0.00307641 0)
(0.991972 -0.00378164 0)
(0.990593 -0.00770187 0)
(0.986997 -0.00842877 0)
(0.986098 -0.00406194 0)
(0.986023 -0.00564529 0)
(0.995433 0.00920953 0)
(1.01228 -0.0114569 0)
(0.975576 0.0146298 0)
(1.00909 0.00106434 0)
(0.999752 -7.3364e-05 0)
(0.984154 -0.00876474 0)
(0.983215 0.00864157 0)
(1.01283 -0.0097442 0)
(0.964909 0.0187811 0)
(0.999416 0.00666416 0)
(0.98233 0.0122336 0)
(0.97876 0.0156771 0)
(0.99549 0.00788128 0)
(0.996717 0.00629467 0)
(0.998775 -0.00294398 0)
(0.996746 -0.00382671 0)
(0.994266 -0.00738294 0)
(0.989864 -0.00827007 0)
(0.9878 -0.0039858 0)
(0.986839 -0.00504345 0)
(0.999339 0.00911974 0)
(1.00664 -0.0112264 0)
(0.985648 0.0145651 0)
(1.00799 0.000925246 0)
(1.00137 8.52912e-05 0)
(0.988814 -0.0084656 0)
(0.98919 0.00826467 0)
(1.00788 -0.00944644 0)
(0.971483 0.0188542 0)
(1.00051 0.0065497 0)
(0.988933 0.0123692 0)
(0.986578 0.0154962 0)
(1.00158 0.00754656 0)
(1.00211 0.00608494 0)
(1.00324 -0.00276762 0)
(1.00064 -0.00381202 0)
(0.997533 -0.00702492 0)
(0.992644 -0.00797959 0)
(0.989616 -0.0038557 0)
(0.987855 -0.00441724 0)
(1.00185 0.00904086 0)
(1.0028 -0.0110389 0)
(0.99263 0.0144497 0)
(1.00816 0.000867509 0)
(1.00217 0.000191303 0)
(0.991767 -0.00821421 0)
(0.994773 0.00800053 0)
(1.00363 -0.00913408 0)
(0.976722 0.0188053 0)
(1.0017 0.00644297 0)
(0.993888 0.0123664 0)
(0.992994 0.0153267 0)
(1.00645 0.00723565 0)
(1.00627 0.00593301 0)
(1.00658 -0.00257332 0)
(1.00358 -0.00373874 0)
(1.00017 -0.00663741 0)
(0.995152 -0.00760656 0)
(0.99146 -0.00367066 0)
(0.989084 -0.00378465 0)
(1.00322 0.00896852 0)
(1.00053 -0.0108794 0)
(0.997018 0.0142874 0)
(1.00872 0.000870743 0)
(1.00282 0.000270272 0)
(0.993429 -0.00800612 0)
(0.999094 0.0078179 0)
(1.00043 -0.00880196 0)
(0.980962 0.0186439 0)
(1.0027 0.00636034 0)
(0.997518 0.0122395 0)
(0.997908 0.0151616 0)
(1.01001 0.00695948 0)
(1.00919 0.00583271 0)
(1.00886 -0.00237116 0)
(1.00558 -0.00360275 0)
(1.00207 -0.0062484 0)
(0.997159 -0.00719615 0)
(0.993117 -0.00342791 0)
(0.990364 -0.00314721 0)
(1.00379 0.00889799 0)
(0.999459 -0.0107338 0)
(0.99937 0.0140867 0)
(1.00924 0.000913134 0)
(1.00353 0.000336393 0)
(0.994254 -0.00782227 0)
(1.00185 0.00768329 0)
(0.998376 -0.00845227 0)
(0.98414 0.0183889 0)
(1.00352 0.00631322 0)
(1.00005 0.0120051 0)
(1.0013 0.0150083 0)
(1.01237 0.00670762 0)
(1.01098 0.005785 0)
(1.01022 -0.00215864 0)
(1.00678 -0.00342946 0)
(1.00325 -0.00586545 0)
(0.998589 -0.00676745 0)
(0.99444 -0.00312121 0)
(0.991526 -0.00251919 0)
(1.00386 0.00882503 0)
(0.999186 -0.0105893 0)
(1.00028 0.0138563 0)
(1.00954 0.000975338 0)
(1.00429 0.000395407 0)
(0.994589 -0.0076399 0)
(1.00322 0.00756759 0)
(0.997287 -0.00808662 0)
(0.986303 0.0180568 0)
(1.00413 0.00630232 0)
(1.00168 0.0116854 0)
(1.0033 0.0148757 0)
(1.01371 0.00646366 0)
(1.01186 0.00577832 0)
(1.01085 -0.00193975 0)
(1.00739 -0.00323893 0)
(1.00389 -0.00546687 0)
(0.999518 -0.00634941 0)
(0.995422 -0.00276227 0)
(0.992492 -0.00192101 0)
(1.00366 0.00874633 0)
(0.999374 -0.0104358 0)
(1.00031 0.0136035 0)
(1.00959 0.00104304 0)
(1.00505 0.00044854 0)
(0.994679 -0.00743932 0)
(1.00365 0.00745033 0)
(0.996833 -0.00770801 0)
(0.987693 0.0176634 0)
(1.0045 0.00632665 0)
(1.00261 0.0113074 0)
(1.00416 0.0147585 0)
(1.01427 0.0062256 0)
(1.01211 0.00579421 0)
(1.01099 -0.00171176 0)
(1.00762 -0.00304371 0)
(1.00418 -0.00502968 0)
(1.0001 -0.00596639 0)
(0.996155 -0.00237827 0)
(0.993274 -0.00135238 0)
(1.00336 0.0086596 0)
(0.999776 -0.0102666 0)
(0.99992 0.013333 0)
(1.00941 0.00110887 0)
(1.00573 0.000492393 0)
(0.994684 -0.0072063 0)
(1.00354 0.00731745 0)
(0.996726 -0.00731614 0)
(0.988602 0.0172186 0)
(1.00465 0.00639057 0)
(1.00306 0.0108891 0)
(1.00424 0.0146533 0)
(1.01429 0.00598957 0)
(1.012 0.00582245 0)
(1.01085 -0.00147114 0)
(1.00764 -0.00286363 0)
(1.00428 -0.00454784 0)
(1.00048 -0.00561398 0)
(0.996744 -0.00199683 0)
(0.993927 -0.00079975 0)
(1.00305 0.00856347 0)
(1.00023 -0.0100776 0)
(0.999417 0.0130481 0)
(1.00908 0.00117049 0)
(1.00628 0.000524 0)
(0.994701 -0.00693577 0)
(1.00321 0.00716288 0)
(0.996798 -0.00690845 0)
(0.989243 0.0167283 0)
(1.00462 0.00649666 0)
(1.00323 0.0104378 0)
(1.0039 0.0145647 0)
(1.01399 0.00573987 0)
(1.01169 0.00585218 0)
(1.01055 -0.00120956 0)
(1.00757 -0.00271377 0)
(1.00429 -0.00401386 0)
(1.00075 -0.00528356 0)
(0.997258 -0.00164323 0)
(0.994496 -0.000254051 0)
(1.00276 0.00845713 0)
(1.00066 -0.00986748 0)
(0.998972 0.0127501 0)
(1.00869 0.00122977 0)
(1.00665 0.00054017 0)
(0.994767 -0.00662557 0)
(1.00282 0.00698441 0)
(0.99697 -0.00648327 0)
(0.989726 0.0161995 0)
(1.00448 0.00663954 0)
(1.00329 0.00996504 0)
(1.00339 0.0144877 0)
(1.0135 0.00548381 0)
(1.01132 0.00586408 0)
(1.01019 -0.000914342 0)
(1.00746 -0.00260619 0)
(1.00426 -0.00344365 0)
(1.00096 -0.00494762 0)
(0.99773 -0.00134345 0)
(0.995003 0.0003153 0)
(1.00252 0.00834029 0)
(1.00103 -0.00963596 0)
(0.998653 0.0124382 0)
(1.00831 0.00129157 0)
(1.00685 0.000537607 0)
(0.994883 -0.00627661 0)
(1.00245 0.00678214 0)
(0.997205 -0.00604048 0)
(0.990112 0.0156362 0)
(1.0043 0.00681725 0)
(1.00336 0.00947953 0)
(1.00285 0.0144121 0)
(1.01295 0.00524138 0)
(1.01093 0.00583299 0)
(1.00979 -0.000564301 0)
(1.00734 -0.00256103 0)
(1.0042 -0.00286603 0)
(1.00113 -0.00457188 0)
(0.998173 -0.00111543 0)
(0.99546 0.000910266 0)
(1.00231 0.00821302 0)
(1.00132 -0.00938371 0)
(0.998463 0.0121112 0)
(1.00798 0.00135973 0)
(1.00692 0.000516493 0)
(0.995034 -0.00589301 0)
(1.00216 0.00655613 0)
(0.997473 -0.00557696 0)
(0.990439 0.0150403 0)
(1.00409 0.00702586 0)
(1.00348 0.00898364 0)
(1.0024 0.0143352 0)
(1.01238 0.00501286 0)
(1.01058 0.00574585 0)
(1.00937 -0.000158983 0)
(1.00724 -0.00255719 0)
(1.00414 -0.00229823 0)
(1.00128 -0.00413361 0)
(0.998596 -0.000977769 0)
(0.995879 0.00148232 0)
(1.00212 0.00807523 0)
(1.00156 -0.00911081 0)
(0.998375 0.0117666 0)
(1.00769 0.00144072 0)
(1.00686 0.000473787 0)
(0.995205 -0.00547616 0)
(1.00193 0.00630581 0)
(0.997758 -0.00509204 0)
(0.990733 0.0144186 0)
(1.00389 0.00725325 0)
(1.00364 0.00848061 0)
(1.00205 0.0142441 0)
(1.01184 0.00482484 0)
(1.01028 0.00560135 0)
(1.00895 0.000301945 0)
(1.00715 -0.00256331 0)
(1.00409 -0.00177439 0)
(1.0014 -0.00360482 0)
(0.999007 -0.000924081 0)
(0.996282 0.00199369 0)
(1.00195 0.00792684 0)
(1.00176 -0.00881779 0)
(0.998355 0.0114023 0)
(1.00746 0.00153734 0)
(1.00672 0.000411545 0)
(0.995387 -0.00503198 0)
(1.00175 0.00603182 0)
(0.998048 -0.00458765 0)
(0.991008 0.0137746 0)
(1.00369 0.00749758 0)
(1.00382 0.00797686 0)
(1.00181 0.0141292 0)
(1.01132 0.00468252 0)
(1.01003 0.00539278 0)
(1.00851 0.000811739 0)
(1.00708 -0.00255927 0)
(1.00406 -0.00132665 0)
(1.0015 -0.00297269 0)
(0.999407 -0.000913103 0)
(0.99669 0.00241112 0)
(1.00178 0.00776836 0)
(1.00192 -0.00850606 0)
(0.998374 0.011019 0)
(1.00727 0.00165004 0)
(1.00653 0.000332441 0)
(0.995572 -0.00456461 0)
(1.00161 0.00573928 0)
(0.99834 -0.00406823 0)
(0.991274 0.0131143 0)
(1.0035 0.00774311 0)
(1.00401 0.00749092 0)
(1.00165 0.0139815 0)
(1.01083 0.00459443 0)
(1.00983 0.00511075 0)
(1.00807 0.00134258 0)
(1.007 -0.00250677 0)
(1.00405 -0.000972929 0)
(1.00158 -0.00225749 0)
(0.999793 -0.000897218 0)
(0.997126 0.0026968 0)
(1.00162 0.00759884 0)
(1.00207 -0.0081736 0)
(0.998417 0.010613 0)
(1.00709 0.00178469 0)
(1.00631 0.000231897 0)
(0.995757 -0.00407469 0)
(1.00149 0.00543311 0)
(0.99863 -0.00354083 0)
(0.991538 0.0124494 0)
(1.00332 0.00797755 0)
(1.00419 0.00702971 0)
(1.00154 0.0137786 0)
(1.01035 0.00457995 0)
(1.00967 0.00477304 0)
(1.00763 0.00187735 0)
(1.00692 -0.0023913 0)
(1.00407 -0.000733061 0)
(1.00165 -0.00150069 0)
(1.00016 -0.000821735 0)
(0.997601 0.00282762 0)
(1.00148 0.00741862 0)
(1.0022 -0.00782217 0)
(0.998476 0.0101854 0)
(1.00691 0.0019378 0)
(1.00608 0.000116639 0)
(0.995937 -0.00357177 0)
(1.00139 0.00511509 0)
(0.998914 -0.00300628 0)
(0.99181 0.0117851 0)
(1.00314 0.00819614 0)
(1.00437 0.00659564 0)
(1.00147 0.0135209 0)
(1.00987 0.00463561 0)
(1.00954 0.0044014 0)
(1.0072 0.00240114 0)
(1.00681 -0.00219356 0)
(1.00414 -0.000600457 0)
(1.00171 -0.000743505 0)
(1.00048 -0.0006388 0)
(0.99812 0.00280706 0)
(1.00135 0.00722793 0)
(1.00231 -0.00745228 0)
(0.998554 0.00973732 0)
(1.00672 0.00211025 0)
(1.00586 -1.23456e-05 0)
(0.996109 -0.00305733 0)
(1.00131 0.0047922 0)
(0.999189 -0.00247897 0)
(0.992098 0.0111349 0)
(1.00295 0.0083785 0)
(1.00454 0.00620695 0)
(1.00142 0.0132076 0)
(1.00938 0.00475401 0)
(1.00944 0.00400387 0)
(1.00679 0.00289136 0)
(1.00666 -0.00189014 0)
(1.00425 -0.000545927 0)
(1.00177 -4.88752e-05 0)
(1.00076 -0.000330903 0)
(0.998675 0.00266257 0)
(1.00124 0.00702532 0)
(1.0024 -0.00706133 0)
(0.998656 0.0092674 0)
(1.00651 0.00230251 0)
(1.00566 -0.000156269 0)
(0.996275 -0.00252902 0)
(1.00124 0.00447071 0)
(0.999454 -0.00196622 0)
(0.992409 0.0105199 0)
(1.00276 0.00851621 0)
(1.00471 0.00586608 0)
(1.00138 0.01284 0)
(1.0089 0.00491914 0)
(1.00935 0.00359485 0)
(1.00642 0.00332337 0)
(1.00647 -0.0014843 0)
(1.0044 -0.000549869 0)
(1.00186 0.00058074 0)
(1.00099 0.000100731 0)
(0.999247 0.00244091 0)
(1.00115 0.00681174 0)
(1.00247 -0.00665239 0)
(0.998784 0.00877863 0)
(1.00627 0.0025112 0)
(1.00548 -0.000309186 0)
(0.996433 -0.00200204 0)
(1.00119 0.00416121 0)
(0.999708 -0.00148064 0)
(0.992745 0.00994855 0)
(1.00256 0.00861328 0)
(1.00488 0.00556198 0)
(1.00136 0.0124289 0)
(1.0084 0.00513122 0)
(1.00927 0.00320139 0)
(1.00609 0.00368058 0)
(1.00622 -0.000968951 0)
(1.00457 -0.000585372 0)
(1.00198 0.00112632 0)
(1.00115 0.000656711 0)
(0.999808 0.00223119 0)
(1.00108 0.00658665 0)
(1.00251 -0.00622439 0)
(0.998937 0.00827052 0)
(1.00602 0.00273475 0)
(1.00532 -0.000466805 0)
(0.996587 -0.00148361 0)
(1.00116 0.00387187 0)
(0.999954 -0.00103841 0)
(0.993104 0.00942516 0)
(1.00236 0.00865463 0)
(1.00504 0.0053018 0)
(1.00135 0.0119823 0)
(1.0079 0.00536734 0)
(1.00921 0.00283905 0)
(1.00581 0.00394814 0)
(1.00593 -0.00036655 0)
(1.00476 -0.000609633 0)
(1.00215 0.00151943 0)
(1.00125 0.00130246 0)
(1.00032 0.00213137 0)
(1.00101 0.00635069 0)
(1.00254 -0.00577961 0)
(0.999108 0.00774676 0)
(1.00576 0.00297068 0)
(1.00517 -0.000627866 0)
(0.996738 -0.000977014 0)
(1.00114 0.00361197 0)
(1.0002 -0.000647814 0)
(0.99348 0.00896406 0)
(1.00217 0.00864669 0)
(1.00519 0.00507519 0)
(1.00136 0.0114974 0)
(1.00739 0.00562618 0)
(1.00914 0.00252216 0)
(1.0056 0.00412471 0)
(1.0056 0.000297614 0)
(1.00493 -0.000577434 0)
(1.00239 0.00175322 0)
(1.00133 0.00195893 0)
(1.00075 0.0021963 0)
(1.00096 0.00610308 0)
(1.00255 -0.00531755 0)
(0.999292 0.00720857 0)
(1.00549 0.00321695 0)
(1.00502 -0.000787492 0)
(0.996889 -0.000493827 0)
(1.00113 0.0033967 0)
(1.00044 -0.000314968 0)
(0.99387 0.00855794 0)
(1.00197 0.00861584 0)
(1.00534 0.00487162 0)
(1.0014 0.0109915 0)
(1.00687 0.005903 0)
(1.00908 0.00226457 0)
(1.00546 0.0042079 0)
(1.00524 0.000999974 0)
(1.00507 -0.000459415 0)
(1.00269 0.00184395 0)
(1.00141 0.00255785 0)
(1.00107 0.00245172 0)
(1.0009 0.00584458 0)
(1.00255 -0.00484056 0)
(0.999484 0.00665954 0)
(1.00523 0.00346373 0)
(1.00489 -0.000933488 0)
(0.997041 -3.54614e-05 0)
(1.00112 0.00323275 0)
(1.00068 -5.07788e-05 0)
(0.994271 0.00820091 0)
(1.00179 0.0085535 0)
(1.00548 0.00469059 0)
(1.00146 0.0104841 0)
(1.00634 0.00617775 0)
(1.009 0.00207208 0)
(1.0054 0.00419437 0)
(1.00486 0.00170353 0)
(1.00516 -0.00024141 0)
(1.00304 0.00183059 0)
(1.00152 0.00303939 0)
(1.00128 0.00286911 0)
(1.00085 0.00557731 0)
(1.00253 -0.00435378 0)
(0.999681 0.00610535 0)
(1.00496 0.00370883 0)
(1.00476 -0.00106119 0)
(0.997197 0.000379919 0)
(1.00109 0.00312936 0)
(1.00092 0.000146677 0)
(0.994681 0.00788019 0)
(1.0016 0.00846963 0)
(1.0056 0.00452818 0)
(1.00155 0.00995418 0)
(1.00581 0.00645862 0)
(1.0089 0.00196063 0)
(1.00541 0.00409025 0)
(1.0045 0.00238932 0)
(1.00518 9.00859e-05 0)
(1.00343 0.00176903 0)
(1.0017 0.00336899 0)
(1.00141 0.00336632 0)
(1.0008 0.00529924 0)
(1.00251 -0.00385438 0)
(0.99988 0.00554807 0)
(1.00469 0.00394667 0)
(1.00463 -0.00116509 0)
(0.997362 0.000739196 0)
(1.00106 0.00309292 0)
(1.00117 0.000289458 0)
(0.995103 0.00757974 0)
(1.00141 0.00839491 0)
(1.00571 0.00436936 0)
(1.00168 0.00940326 0)
(1.00527 0.00673712 0)
(1.00876 0.00193464 0)
(1.0055 0.00390771 0)
(1.00417 0.00303199 0)
(1.00512 0.000524186 0)
(1.00382 0.00170219 0)
(1.00196 0.00354954 0)
(1.0015 0.00384622 0)
(1.00076 0.00501336 0)
(1.00247 -0.00334856 0)
(1.00008 0.00499529 0)
(1.00442 0.00416591 0)
(1.0045 -0.00122974 0)
(0.997536 0.00103316 0)
(1.00102 0.00311959 0)
(1.00141 0.000397746 0)
(0.995539 0.00727948 0)
(1.00123 0.00833347 0)
(1.00579 0.00422046 0)
(1.00185 0.00883505 0)
(1.00475 0.00699971 0)
(1.00857 0.00200145 0)
(1.00565 0.00365418 0)
(1.00389 0.00359453 0)
(1.00498 0.00104213 0)
(1.0042 0.00165608 0)
(1.00229 0.00360331 0)
(1.00159 0.00423057 0)
(1.00071 0.00471943 0)
(1.00241 -0.00283976 0)
(1.00028 0.00445432 0)
(1.00416 0.00435869 0)
(1.00437 -0.00125181 0)
(0.997723 0.00125121 0)
(1.00097 0.00320445 0)
(1.00164 0.000483221 0)
(0.995991 0.00696041 0)
(1.00104 0.00828708 0)
(1.00585 0.00410872 0)
(1.00207 0.00824724 0)
(1.00425 0.00722957 0)
(1.00832 0.00217327 0)
(1.00586 0.0033484 0)
(1.00368 0.00404039 0)
(1.00478 0.00163804 0)
(1.00453 0.0016747 0)
(1.00269 0.00358277 0)
(1.00173 0.00449735 0)
(1.00067 0.00441993 0)
(1.00235 -0.00233341 0)
(1.00048 0.00393021 0)
(1.00391 0.00451732 0)
(1.00423 -0.00122323 0)
(0.997924 0.00140052 0)
(1.00091 0.00333163 0)
(1.00186 0.000557122 0)
(0.996462 0.00662119 0)
(1.00087 0.00825361 0)
(1.00587 0.00404318 0)
(1.00232 0.00764747 0)
(1.00379 0.00741502 0)
(1.00801 0.00245356 0)
(1.0061 0.0030368 0)
(1.00357 0.00434937 0)
(1.00453 0.00227583 0)
(1.00479 0.00176923 0)
(1.00314 0.00351423 0)
(1.00194 0.00465574 0)
(1.00063 0.00411832 0)
(1.00226 -0.00183551 0)
(1.00067 0.00342984 0)
(1.00366 0.0046354 0)
(1.00408 -0.00113211 0)
(0.99814 0.00147546 0)
(1.00085 0.00348923 0)
(1.00207 0.000644551 0)
(0.99695 0.00625039 0)
(1.00071 0.00821558 0)
(1.00585 0.00403074 0)
(1.00261 0.00704334 0)
(1.00339 0.00753698 0)
(1.00764 0.0028247 0)
(1.00635 0.00276293 0)
(1.00357 0.00450877 0)
(1.00424 0.00291709 0)
(1.00496 0.00194973 0)
(1.0036 0.00340965 0)
(1.00222 0.00472788 0)
(1.00059 0.00381267 0)
(1.00217 -0.00134535 0)
(1.00086 0.00296378 0)
(1.00343 0.00470118 0)
(1.00393 -0.000981739 0)
(0.99837 0.00148363 0)
(1.00079 0.00366338 0)
(1.00224 0.000761131 0)
(0.997454 0.00584733 0)
(1.00058 0.00816194 0)
(1.00579 0.00408371 0)
(1.00294 0.00644399 0)
(1.00307 0.00756645 0)
(1.00721 0.00326221 0)
(1.00658 0.00256104 0)
(1.00367 0.00451642 0)
(1.00396 0.00352202 0)
(1.00504 0.00223491 0)
(1.00406 0.00329335 0)
(1.00257 0.00473425 0)
(1.00055 0.00350564 0)
(1.00206 -0.000867768 0)
(1.00103 0.00253667 0)
(1.00321 0.00471355 0)
(1.00376 -0.000760934 0)
(0.998611 0.00143835 0)
(1.00074 0.00383069 0)
(1.00239 0.000929425 0)
(0.99797 0.00542302 0)
(1.00047 0.00806665 0)
(1.00568 0.00420964 0)
(1.00327 0.00588631 0)
(1.00283 0.00750248 0)
(1.00674 0.00373165 0)
(1.00677 0.00245633 0)
(1.00387 0.00439493 0)
(1.00372 0.00403764 0)
(1.00501 0.00261477 0)
(1.00449 0.00319308 0)
(1.00298 0.00466577 0)
(1.00052 0.0032035 0)
(1.00193 -0.000413063 0)
(1.0012 0.0021512 0)
(1.003 0.00466893 0)
(1.00357 -0.00047036 0)
(0.998859 0.0013569 0)
(1.0007 0.00396377 0)
(1.0025 0.00116679 0)
(0.998491 0.00500652 0)
(1.00041 0.00792369 0)
(1.00553 0.00438453 0)
(1.00361 0.00539867 0)
(1.00267 0.00733666 0)
(1.00625 0.00418271 0)
(1.00688 0.00246058 0)
(1.00416 0.00419029 0)
(1.00355 0.00443091 0)
(1.00489 0.00307 0)
(1.00485 0.00316481 0)
(1.00344 0.00452504 0)
(1.00049 0.00290195 0)
(1.0018 1.82708e-05 0)
(1.00135 0.00182204 0)
(1.00282 0.00455353 0)
(1.00337 -0.000120163 0)
(0.999108 0.00125494 0)
(1.00069 0.00404616 0)
(1.00258 0.0014459 0)
(0.999008 0.00462148 0)
(1.0004 0.0077317 0)
(1.00535 0.00459415 0)
(1.00392 0.00500065 0)
(1.00261 0.0070972 0)
(1.00575 0.00459357 0)
(1.00692 0.00256603 0)
(1.0045 0.0039452 0)
(1.00348 0.00467502 0)
(1.00472 0.00354244 0)
(1.00511 0.00323833 0)
(1.00393 0.00433876 0)
(1.00046 0.00261404 0)
(1.00165 0.000410354 0)
(1.00147 0.00155257 0)
(1.00267 0.00437117 0)
(1.00316 0.000258821 0)
(0.99935 0.00114726 0)
(1.0007 0.00404968 0)
(1.00264 0.00176229 0)
(0.999511 0.00429453 0)
(1.00043 0.00747095 0)
(1.00514 0.00479738 0)
(1.00421 0.00468741 0)
(1.00263 0.00680308 0)
(1.00528 0.0049407 0)
(1.00687 0.00275838 0)
(1.00486 0.00371415 0)
(1.00351 0.0047864 0)
(1.00453 0.00398596 0)
(1.00527 0.00341944 0)
(1.0044 0.00417198 0)
(1.00044 0.00233204 0)
(1.00149 0.000770197 0)
(1.00157 0.00134489 0)
(1.00254 0.00413076 0)
(1.00294 0.00065667 0)
(0.999576 0.00109922 0)
(1.00075 0.00397887 0)
(1.00267 0.00209206 0)
(0.99998 0.0040559 0)
(1.0005 0.00717468 0)
(1.00491 0.00497549 0)
(1.00446 0.0044588 0)
(1.00272 0.00647 0)
(1.00485 0.00521008 0)
(1.00674 0.00301647 0)
(1.00523 0.00352185 0)
(1.00366 0.00477731 0)
(1.00436 0.00435547 0)
(1.00531 0.00366994 0)
(1.00482 0.00407828 0)
(1.00041 0.00206479 0)
(1.00133 0.00108297 0)
(1.00165 0.00120942 0)
(1.00244 0.0038221 0)
(1.00272 0.00107895 0)
(0.999772 0.00115465 0)
(1.00082 0.00386349 0)
(1.00269 0.00240129 0)
(1.00042 0.00389702 0)
(1.00062 0.00684187 0)
(1.00468 0.00508922 0)
(1.00466 0.00428247 0)
(1.00287 0.00610898 0)
(1.00447 0.00539217 0)
(1.00653 0.00331155 0)
(1.00555 0.0033863 0)
(1.00389 0.00467047 0)
(1.00424 0.00463297 0)
(1.00529 0.0039432 0)
(1.00514 0.00407205 0)
(1.00039 0.0018201 0)
(1.00117 0.00133757 0)
(1.00169 0.00113767 0)
(1.00236 0.00348045 0)
(1.00252 0.00148235 0)
(0.999934 0.00128746 0)
(1.0009 0.00371118 0)
(1.00272 0.00264921 0)
(1.00082 0.00378217 0)
(1.00076 0.00648423 0)
(1.00445 0.00514781 0)
(1.00481 0.0041533 0)
(1.00306 0.00574862 0)
(1.00417 0.00549869 0)
(1.00628 0.00362705 0)
(1.00581 0.00333805 0)
(1.0042 0.00450767 0)
(1.00419 0.00481576 0)
(1.00521 0.00421016 0)
(1.00536 0.004131 0)
(1.00037 0.00158754 0)
(1.001 0.00154521 0)
(1.00169 0.00113244 0)
(1.00231 0.00313021 0)
(1.00233 0.00181163 0)
(1.00006 0.00148532 0)
(1.001 0.00356093 0)
(1.00274 0.0028148 0)
(1.00119 0.00370794 0)
(1.00092 0.00616491 0)
(1.00424 0.00519156 0)
(1.00492 0.00407354 0)
(1.00329 0.00540598 0)
(1.00395 0.00553542 0)
(1.00599 0.00393439 0)
(1.00599 0.0033724 0)
(1.00455 0.0043202 0)
(1.00423 0.00489095 0)
(1.00512 0.00445094 0)
(1.0055 0.00422501 0)
(1.00035 0.00138486 0)
(1.00084 0.00168594 0)
(1.00166 0.00118227 0)
(1.00227 0.00277169 0)
(1.00217 0.00206007 0)
(1.00016 0.00174052 0)
(1.00108 0.00344069 0)
(1.00276 0.00292737 0)
(1.00152 0.00366225 0)
(1.0011 0.00587539 0)
(1.00403 0.00520276 0)
(1.00497 0.00403166 0)
(1.00354 0.00508319 0)
(1.0038 0.00549835 0)
(1.00569 0.00420765 0)
(1.00609 0.00347414 0)
(1.00491 0.00414723 0)
(1.00436 0.00486602 0)
(1.00504 0.00464672 0)
(1.00557 0.00434007 0)
(1.00033 0.00120495 0)
(1.00069 0.00176512 0)
(1.0016 0.00127345 0)
(1.00224 0.00243413 0)
(1.00205 0.00221385 0)
(1.00023 0.00203257 0)
(1.00115 0.00337142 0)
(1.00279 0.00300121 0)
(1.00183 0.00361711 0)
(1.00128 0.00560796 0)
(1.00384 0.00519564 0)
(1.00499 0.0040308 0)
(1.00379 0.00478914 0)
(1.00374 0.00539184 0)
(1.0054 0.00442879 0)
(1.0061 0.00362183 0)
(1.00524 0.00401703 0)
(1.00456 0.00476599 0)
(1.00499 0.0047735 0)
(1.00558 0.00447135 0)
(1.00032 0.00105169 0)
(1.00056 0.0017853 0)
(1.00152 0.00139284 0)
(1.00221 0.00214243 0)
(1.00198 0.00226021 0)
(1.00028 0.00233113 0)
(1.00121 0.00338075 0)
(1.00282 0.00305631 0)
(1.00211 0.00355527 0)
(1.00148 0.00535408 0)
(1.00367 0.00516952 0)
(1.00495 0.00404881 0)
(1.00403 0.00452939 0)
(1.00375 0.00523349 0)
(1.00515 0.00458871 0)
(1.00605 0.00379599 0)
(1.00552 0.00394898 0)
(1.00482 0.00463531 0)
(1.005 0.00482258 0)
(1.00555 0.00460019 0)
(1.0003 0.000924827 0)
(1.00044 0.00175316 0)
(1.00141 0.00152345 0)
(1.00217 0.00191414 0)
(1.00194 0.00223585 0)
(1.00034 0.00260299 0)
(1.00123 0.00344651 0)
(1.00282 0.0031045 0)
(1.00237 0.00347862 0)
(1.00169 0.00510296 0)
(1.00352 0.00512624 0)
(1.00488 0.00409342 0)
(1.00425 0.00432484 0)
(1.00383 0.00504831 0)
(1.00495 0.00468313 0)
(1.00595 0.0039644 0)
(1.00573 0.00392971 0)
(1.00509 0.00449619 0)
(1.00508 0.00478906 0)
(1.00552 0.0046798 0)
(1.00028 0.000824071 0)
(1.00034 0.00167466 0)
(1.00129 0.00166097 0)
(1.00213 0.001756 0)
(1.00194 0.00215391 0)
(1.00042 0.00282428 0)
(1.00124 0.00355434 0)
(1.00281 0.00316964 0)
(1.0026 0.00340453 0)
(1.00192 0.00484912 0)
(1.00341 0.0050543 0)
(1.00478 0.00415512 0)
(1.00443 0.00417267 0)
(1.00395 0.00484164 0)
(1.0048 0.00470955 0)
(1.00583 0.00410686 0)
(1.00588 0.0039467 0)
(1.00535 0.00437864 0)
(1.00521 0.00471477 0)
(1.00552 0.00470337 0)
(1.00027 0.000748082 0)
(1.00026 0.00156655 0)
(1.00117 0.00178767 0)
(1.00206 0.00169043 0)
(1.00198 0.00202181 0)
(1.00052 0.00295081 0)
(1.00123 0.00367731 0)
(1.00277 0.00325985 0)
(1.0028 0.00334243 0)
(1.00215 0.00459472 0)
(1.00334 0.00494421 0)
(1.00466 0.00421136 0)
(1.00456 0.00407527 0)
(1.00409 0.00463964 0)
(1.00471 0.00468064 0)
(1.0057 0.00421838 0)
(1.00597 0.00398229 0)
(1.00559 0.00428332 0)
(1.00536 0.00462741 0)
(1.00555 0.00467677 0)
(1.00025 0.000690065 0)
(1.00021 0.00145126 0)
(1.00106 0.0018836 0)
(1.00197 0.00171241 0)
(1.00203 0.00188307 0)
(1.00065 0.00296306 0)
(1.00123 0.00378028 0)
(1.00271 0.00337334 0)
(1.00296 0.00330496 0)
(1.00238 0.00435445 0)
(1.00331 0.00480515 0)
(1.00454 0.00424676 0)
(1.00464 0.00402228 0)
(1.00424 0.00446407 0)
(1.00467 0.00460963 0)
(1.00558 0.00429108 0)
(1.006 0.00402248 0)
(1.0058 0.00419472 0)
(1.00553 0.00452718 0)
(1.00561 0.00461903 0)
(1.00023 0.000645256 0)
(1.00017 0.0013442 0)
(1.00096 0.0019388 0)
(1.00186 0.00178734 0)
(1.00207 0.0017862 0)
(1.00082 0.0028869 0)
(1.00125 0.00383969 0)
(1.00262 0.00350182 0)
(1.00307 0.00329943 0)
(1.0026 0.0041328 0)
(1.00331 0.00463653 0)
(1.00442 0.00425095 0)
(1.00469 0.00398879 0)
(1.00438 0.00431709 0)
(1.00468 0.00451229 0)
(1.00547 0.00432024 0)
(1.006 0.00406812 0)
(1.00597 0.00412303 0)
(1.00571 0.00441552 0)
(1.00569 0.00455376 0)
(1.00022 0.000610994 0)
(1.00014 0.00124848 0)
(1.00088 0.00195142 0)
(1.00174 0.00188314 0)
(1.0021 0.00176174 0)
(1.001 0.00275947 0)
(1.0013 0.00382684 0)
(1.00254 0.00361776 0)
(1.00314 0.00333308 0)
(1.0028 0.0039453 0)
(1.00335 0.00444978 0)
(1.00433 0.00422505 0)
(1.00471 0.0039635 0)
(1.00451 0.0041907 0)
(1.00472 0.00440169 0)
(1.0054 0.00430425 0)
(1.00596 0.00410213 0)
(1.00609 0.00407549 0)
(1.00589 0.00428651 0)
(1.00578 0.00447025 0)
(1.0002 0.000584006 0)
(1.00013 0.001169 0)
(1.00082 0.0019273 0)
(1.00162 0.00197441 0)
(1.00211 0.00180723 0)
(1.0012 0.0026295 0)
(1.00139 0.00373536 0)
(1.00246 0.00369741 0)
(1.00317 0.00339058 0)
(1.00296 0.00380191 0)
(1.00341 0.00426145 0)
(1.00425 0.00416302 0)
(1.00471 0.00393582 0)
(1.00462 0.00408242 0)
(1.00477 0.00429003 0)
(1.00536 0.00426043 0)
(1.00592 0.00410741 0)
(1.00616 0.00405247 0)
(1.00605 0.00416144 0)
(1.00589 0.00436179 0)
(1.00019 0.000559061 0)
(1.00012 0.0011099 0)
(1.00078 0.00188129 0)
(1.00151 0.00204616 0)
(1.00209 0.00189261 0)
(1.00137 0.00252742 0)
(1.00151 0.00358991 0)
(1.0024 0.00373131 0)
(1.00316 0.00344886 0)
(1.00309 0.00370436 0)
(1.00348 0.00408719 0)
(1.00421 0.00407095 0)
(1.0047 0.00389267 0)
(1.00471 0.00398725 0)
(1.00484 0.00417616 0)
(1.00533 0.00419981 0)
(1.00588 0.00407865 0)
(1.00619 0.00403037 0)
(1.00618 0.00406239 0)
(1.00601 0.00422909 0)
(1.00018 0.000536768 0)
(1.00012 0.0010674 0)
(1.00076 0.00182262 0)
(1.00141 0.00209225 0)
(1.00206 0.00198779 0)
(1.00153 0.00246669 0)
(1.00165 0.00342457 0)
(1.00237 0.0037048 0)
(1.00314 0.00349424 0)
(1.00319 0.00363997 0)
(1.00354 0.00393858 0)
(1.00418 0.00397131 0)
(1.00469 0.00383431 0)
(1.00478 0.00389521 0)
(1.00491 0.00405644 0)
(1.00533 0.00412304 0)
(1.00585 0.00403061 0)
(1.0062 0.00398809 0)
(1.00627 0.00398922 0)
(1.00613 0.00408955 0)
(1.00017 0.000515373 0)
(1.00011 0.0010372 0)
(1.00074 0.00176037 0)
(1.00133 0.00210686 0)
(1.00202 0.00207819 0)
(1.00165 0.00245022 0)
(1.00179 0.00326821 0)
(1.00238 0.00362219 0)
(1.00312 0.00351353 0)
(1.00325 0.0035916 0)
(1.0036 0.00381281 0)
(1.00416 0.00386822 0)
(1.00467 0.00376558 0)
(1.00484 0.00380228 0)
(1.00499 0.00393434 0)
(1.00534 0.00402843 0)
(1.00582 0.00397308 0)
(1.0062 0.00392516 0)
(1.00631 0.00391944 0)
(1.00623 0.00396539 0)
(1.00016 0.000496086 0)
(1.00011 0.00101222 0)
(1.00073 0.00170137 0)
(1.00126 0.00209666 0)
(1.00198 0.00215172 0)
(1.00175 0.00246062 0)
(1.00193 0.00313656 0)
(1.00241 0.00351277 0)
(1.00311 0.00349386 0)
(1.00329 0.00355088 0)
(1.00365 0.0037098 0)
(1.00415 0.00376566 0)
(1.00466 0.00368986 0)
(1.00488 0.00371186 0)
(1.00506 0.00381164 0)
(1.00537 0.00391367 0)
(1.0058 0.00389643 0)
(1.00619 0.00384899 0)
(1.00634 0.00383273 0)
(1.0063 0.00385694 0)
(1.00015 0.000477771 0)
(1.00011 0.000990228 0)
(1.00073 0.00164877 0)
(1.00121 0.00207324 0)
(1.00193 0.00220235 0)
(1.00182 0.00247804 0)
(1.00204 0.00303108 0)
(1.00245 0.0033977 0)
(1.0031 0.00343507 0)
(1.00332 0.00349972 0)
(1.00368 0.00362155 0)
(1.00413 0.00367064 0)
(1.00464 0.00360561 0)
(1.00491 0.00362064 0)
(1.00512 0.0036901 0)
(1.00541 0.00378458 0)
(1.00579 0.00379538 0)
(1.00618 0.00376471 0)
(1.00636 0.00373384 0)
(1.00634 0.00375297 0)
(1.00014 0.000461001 0)
(1.00011 0.000968566 0)
(1.00072 0.00160123 0)
(1.00116 0.00204242 0)
(1.0019 0.0022298 0)
(1.00188 0.00249191 0)
(1.00214 0.00295132 0)
(1.00249 0.00328741 0)
(1.0031 0.00335805 0)
(1.00334 0.00343033 0)
(1.00369 0.00353467 0)
(1.00411 0.0035841 0)
(1.00461 0.00352175 0)
(1.00492 0.00352461 0)
(1.00516 0.00357128 0)