/*--------------------------------*- C++ -*----------------------------------*\
| =========                 |                                                 |
| \\      /  F ield         | OpenFOAM: The Open Source CFD Toolbox           |
|  \\    /   O peration     | Version:  3.0.1                                 |
|   \\  /    A nd           | Web:      www.OpenFOAM.org                      |
|    \\/     M anipulation  |                                                 |
\*---------------------------------------------------------------------------*/
FoamFile
{
    version     2.0;
    format      ascii;
    class       volScalarField;
    location    "1.1";
    object      p;
}
// * * * * * * * * * * * * * * * * * * * * * * * * * * * * * * * * * * * * * //

dimensions      [0 2 -2 0 0 0 0];

internalField   nonuniform List<scalar> 
9600
(
2.27377e-11
-5.06583e-05
-0.00203175
0.000176355
0.0012819
0.000548323
0.000254277
0.00209224
0.00142673
0.00123802
0.00126886
0.00174404
0.00211208
0.00282191
0.00279515
0.0045423
0.00506371
0.007366
0.0092289
0.0149473
-1.84328e-07
-5.29033e-05
-0.00200182
0.000173213
0.0012713
0.000553811
0.000259293
0.0020848
0.00142984
0.00122439
0.00127425
0.00174797
0.00210958
0.00282109
0.0028021
0.00452653
0.00507746
0.00733414
0.00924236
0.0142905
-6.63196e-07
-5.54029e-05
-0.00198164
0.000167783
0.00126131
0.000562123
0.000263448
0.00207218
0.00143387
0.00121014
0.00128444
0.00175571
0.00210654
0.00282261
0.00281118
0.00451107
0.00509541
0.00728885
0.00923362
0.0136925
-1.4581e-06
-5.84394e-05
-0.00196004
0.000165564
0.00125085
0.000570529
0.000267446
0.00205624
0.0014379
0.00119072
0.00129624
0.00176877
0.00210044
0.00282372
0.00282157
0.00449178
0.00511492
0.00722913
0.00920588
0.0131096
-2.72089e-06
-6.19337e-05
-0.00193471
0.000165953
0.00123752
0.000579838
0.000272163
0.00203713
0.0014419
0.00116842
0.00131034
0.00178389
0.00209167
0.00282337
0.00283292
0.00446843
0.00513442
0.00715753
0.00915548
0.0125839
-4.47404e-06
-6.54797e-05
-0.0019052
0.000167018
0.00122111
0.000589981
0.000277768
0.00201571
0.00144625
0.00114485
0.00132659
0.00179883
0.00208261
0.00282089
0.00284571
0.00444072
0.00515292
0.0070771
0.00908378
0.012086
-6.60761e-06
-6.88736e-05
-0.00187192
0.000168006
0.00120216
0.000600642
0.000284344
0.00199299
0.0014511
0.00112065
0.00134417
0.00181309
0.00207407
0.0028161
0.00285974
0.00440894
0.00516972
0.00698979
0.00898229
0.0116135
-8.96923e-06
-7.20679e-05
-0.00183551
0.000168754
0.0011814
0.000611612
0.000292029
0.00196946
0.00145636
0.00109584
0.00136254
0.00182652
0.00206648
0.00280907
0.00287446
0.00437402
0.0051829
0.00689681
0.00886002
0.0111642
-1.14087e-05
-7.50829e-05
-0.00179665
0.00016932
0.00115954
0.00062277
0.00030086
0.00194519
0.00146189
0.00107041
0.00138142
0.00183912
0.00206003
0.00279984
0.00288926
0.00433681
0.00519032
0.00679915
0.00871295
0.0107348
-1.38132e-05
-7.79822e-05
-0.00175592
0.000169885
0.00113717
0.000633999
0.000310754
0.00192012
0.00146756
0.00104432
0.00140069
0.00185092
0.00205458
0.00278874
0.00290341
0.00429804
0.00519012
0.00669735
0.00854209
0.0103207
-1.61181e-05
-8.08369e-05
-0.0017137
0.000170622
0.00111467
0.00064518
0.000321587
0.00189418
0.00147328
0.00101762
0.00142029
0.001862
0.00204981
0.00277628
0.00291588
0.00425829
0.00518092
0.00659151
0.00834929
0.00991715
-1.82887e-05
-8.37019e-05
-0.0016702
0.000171629
0.00109229
0.00065618
0.000333235
0.00186733
0.00147899
0.00099033
0.00144011
0.00187246
0.00204528
0.00276305
0.00292559
0.00421803
0.00516177
0.00648092
0.00813735
0.00952051
-2.02999e-05
-8.6616e-05
-0.00162555
0.000172907
0.00107018
0.000666874
0.000345599
0.00183952
0.00148467
0.000962296
0.00145992
0.00188248
0.00204043
0.00274965
0.00293166
0.0041775
0.00513216
0.00636399
0.00791014
0.00912858
-2.21239e-05
-8.96085e-05
-0.00157978
0.000174376
0.00104844
0.000677171
0.000358608
0.00181075
0.00149027
0.000934013
0.00147937
0.00189245
0.0020346
0.00273659
0.0029335
0.00413643
0.00509221
0.00623841
0.00767198
0.008741
-2.37262e-05
-9.27052e-05
-0.00153292
0.000175924
0.00102714
0.000686992
0.000372196
0.00178102
0.00149576
0.000905635
0.00149805
0.00190282
0.00202706
0.00272423
0.00293072
0.00409384
0.0050428
0.00610181
0.00742594
0.00835861
-2.50675e-05
-9.59331e-05
-0.001485
0.000177448
0.0010063
0.000696285
0.000386289
0.00175036
0.00150102
0.000877312
0.0015155
0.00191406
0.00201724
0.00271282
0.00292329
0.004048
0.00498534
0.0059528
0.00717298
0.00798267
-2.61046e-05
-9.93217e-05
-0.00143602
0.000178863
0.00098596
0.00070504
0.000400789
0.00171883
0.00150593
0.000849325
0.00153114
0.00192663
0.00200479
0.00270254
0.0029116
0.00399662
0.00492108
0.00579124
0.00691322
0.00761473
-2.67878e-05
-0.000102898
-0.00138605
0.000180108
0.00096615
0.000713283
0.000415585
0.00168651
0.00151032
0.000822014
0.00154436
0.00194096
0.00198949
0.00270055
0.00289643
0.00393746
0.00485061
0.00561817
0.006646
0.00725638
-2.7062e-05
-0.000106683
-0.00133514
0.000181158
0.000946895
0.000721075
0.000430551
0.00165356
0.00151393
0.000795731
0.00155465
0.00195731
0.0019712
0.00268899
0.00287894
0.0038688
0.00477372
0.00543586
0.00636999
0.00690868
-2.6869e-05
-0.000110702
-0.00128339
0.00018203
0.000928201
0.000728518
0.000445499
0.00162013
0.00151653
0.00077077
0.00156157
0.00197572
0.00195007
0.00267457
0.00286036
0.00378966
0.00468966
0.00524696
0.00608385
0.00657168
-2.61413e-05
-0.000114977
-0.00123089
0.000182769
0.00091004
0.000735779
0.000460203
0.00158639
0.00151792
0.000747444
0.00156475
0.00199603
0.00192662
0.00265608
0.00284129
0.00369964
0.00459714
0.00505371
0.00578718
0.0062439
-2.48049e-05
-0.000119516
-0.00117779
0.000183462
0.000892339
0.000743054
0.00047445
0.00155247
0.00151797
0.00072627
0.00156398
0.00201799
0.00190152
0.00263198
0.00282172
0.00359916
0.004494
0.00486114
0.00548128
0.00592249
-2.27851e-05
-0.000124312
-0.00112427
0.000184222
0.000874998
0.000750583
0.000488048
0.00151843
0.00151658
0.000710834
0.00155933
0.00204097
0.00187541
0.00260119
0.00280125
0.00348919
0.00437797
0.00467076
0.00516867
0.00560387
-2.00051e-05
-0.000129352
-0.00107055
0.000185149
0.000857891
0.000758686
0.000500863
0.00148426
0.0015137
0.00069365
0.00155101
0.00206434
0.00184864
0.00256283
0.00277909
0.00337093
0.00424769
0.00448383
0.00485248
0.00528412
-1.63939e-05
-0.000134591
-0.00101688
0.000186403
0.000840855
0.000767607
0.000512907
0.00144981
0.00150945
0.000677271
0.00153909
0.00208775
0.00182141
0.002516
0.00275437
0.00324554
0.00410217
0.00430147
0.00453657
0.00495885
-1.18779e-05
-0.000139952
-0.000963573
0.00018821
0.000823709
0.000777474
0.000524296
0.00141482
0.00150414
0.00066144
0.00152346
0.0021109
0.00179372
0.00245967
0.00272614
0.00311446
0.00394042
0.00412444
0.00422633
0.00462362
-6.38957e-06
-0.000145302
-0.000911029
0.000190773
0.000806333
0.000788408
0.000535169
0.00137888
0.00149831
0.000646089
0.00150384
0.00213363
0.00176554
0.00239264
0.00269318
0.00297971
0.00376148
0.00395177
0.00392888
0.00427607
1.14721e-07
-0.000150476
-0.000859651
0.000194313
0.000788643
0.000800439
0.000545887
0.00134138
0.00149235
0.000631399
0.0014797
0.00215558
0.00173695
0.00231376
0.0026546
0.00284411
0.00356548
0.00377952
0.00365116
0.00391875
7.66655e-06
-0.00015528
-0.000809883
0.00019901
0.000770623
0.000813515
0.000557121
0.00130162
0.00148628
0.000617852
0.00144993
0.00217621
0.00170864
0.00222183
0.00260821
0.00269952
0.00335427
0.00360205
0.00339744
0.00355984
1.62678e-05
-0.000159423
-0.000762221
0.000204942
0.000752447
0.00082739
0.000569692
0.00125899
0.00147976
0.000606608
0.00141313
0.00219456
0.00168191
0.00211573
0.00255238
0.00257586
0.00313158
0.00341303
0.00316748
0.00321144
2.58722e-05
-0.000162523
-0.00071719
0.000212104
0.000734457
0.00084168
0.000584481
0.00121332
0.0014721
0.000598857
0.00136839
0.00220884
0.00165829
0.00199547
0.00248466
0.00246152
0.00290196
0.00320761
0.00295669
0.0028855
3.63799e-05
-0.000164131
-0.000675207
0.000220362
0.00071719
0.000855792
0.000602335
0.00116485
0.00146201
0.000595687
0.00131543
0.00221617
0.00163916
0.00186254
0.00240216
0.00235726
0.00267099
0.00298398
0.00275752
0.00259019
4.76488e-05
-0.000163817
-0.000636578
0.000229451
0.00070135
0.000868732
0.000623815
0.00111442
0.00144758
0.00059808
0.00125453
0.00221288
0.00162579
0.00172072
0.00230178
0.00226135
0.00244447
0.00274355
0.00256135
0.00232773
5.95004e-05
-0.000161108
-0.000601484
0.000238806
0.000687774
0.000882899
0.000649095
0.00106335
0.0014267
0.00060599
0.00118678
0.00219533
0.00161864
0.00157558
0.00218131
0.00217051
0.00222733
0.00248929
0.00236057
0.00209406
7.16931e-05
-0.000155489
-0.000569864
0.000247548
0.000677187
0.000887869
0.000677953
0.00101348
0.00139741
0.000618515
0.00111416
0.00216052
0.00161684
0.00143281
0.00204035
0.00208093
0.00202345
0.00222435
0.00215007
0.00188152
8.39795e-05
-0.00014651
-0.00054131
0.000254576
0.000670154
0.000882405
0.000709382
0.000967036
0.0013584
0.000633507
0.00103947
0.00210705
0.00161778
0.0012971
0.00188005
0.00198858
0.00183605
0.00195235
0.00192703
0.00168244
9.61001e-05
-0.000133816
-0.000515148
0.000258572
0.000667065
0.000878498
0.000741605
0.000925996
0.00130944
0.000647771
0.000965551
0.00203523
0.00161728
0.00117142
0.00170311
0.00188882
0.00166774
0.00167855
0.00168897
0.00149115
0.00010777
-0.000117191
-0.000490379
0.000258133
0.000667817
0.000873943
0.000772522
0.000891635
0.00125125
0.000657399
0.000894556
0.00194748
0.00161131
0.00105755
0.00151306
0.00177652
0.00151923
0.0014107
0.00143336
0.00130227
0.000118797
-9.65404e-05
-0.000465874
0.000252037
0.000671749
0.000869059
0.000799936
0.000864308
0.00118594
0.000658704
0.0008269
0.0018479
0.00159725
0.000955726
0.00131341
0.00164707
0.00138884
0.00115881
0.00116013
0.00110753
0.000129002
-7.1913e-05
-0.000440363
0.000239393
0.000677546
0.000865279
0.000821912
0.00084319
0.00111703
0.000649871
0.000761728
0.00174017
0.001574
0.000864927
0.00110766
0.0014969
0.00127132
0.000932376
0.00087546
0.000896292
0.000138222
-4.35696e-05
-0.000412451
0.000219774
0.000683402
0.000863978
0.000837114
0.000826533
0.00104807
0.000630453
0.000696697
0.0016264
0.00154168
0.000784801
0.000899566
0.00132377
0.00115832
0.000737424
0.00059249
0.000660814
0.000146371
-1.20512e-05
-0.000380789
0.000193453
0.000687039
0.000865948
0.000845064
0.000811987
0.000982026
0.000601429
0.00062876
0.00150708
0.00150072
0.00071527
0.000693575
0.00112743
0.00104083
0.000573529
0.000326332
0.000402897
0.000153392
2.1856e-05
-0.000343964
0.000161309
0.000685683
0.000871605
0.000846093
0.000796252
0.00092061
0.000566205
0.000556328
0.00138107
0.00145029
0.000656836
0.00049483
0.000909902
0.000910518
0.000433662
8.79952e-05
0.000134533
0.000159418
5.71476e-05
-0.000300798
0.000124843
0.000676403
0.000880792
0.000841545
0.000775889
0.000863971
0.000529212
0.000479882
0.00124645
0.00138845
0.000609196
0.000309124
0.000675425
0.00076087
0.000309222
-0.000118889
-0.000129356
0.000164697
9.27012e-05
-0.00025061
8.62158e-05
0.000656332
0.000893074
0.000833727
0.000747997
0.000811057
0.000494221
0.000401146
0.00110194
0.00131211
0.000569753
0.000142752
0.000431242
0.000587506
0.000191559
-0.000295369
-0.000377878
0.000169577
0.000127355
-0.000193169
4.80665e-05
0.000622718
0.000906219
0.000826279
0.000710892
0.0007576
0.000463334
0.000325113
0.000948628
0.00121699
0.00053397
5.07416e-07
0.000186526
0.000389455
7.14505e-05
-0.000444497
-0.000605278
0.000174605
0.000159962
-0.000129118
1.36465e-05
0.000573622
0.000916967
0.000824079
0.00066547
0.000697823
0.000436428
0.000257833
0.000789525
0.00109954
0.000495186
-0.000117162
-4.83293e-05
0.000171205
-6.01741e-05
-0.000571049
-0.000807076
0.000180536
0.0001894
-6.02008e-05
-1.33571e-05
0.000508578
0.000920514
0.000830006
0.000611765
0.000626408
0.00041066
0.0002035
0.000630672
0.000959858
0.000444676
-0.000214849
-0.000264052
-5.8042e-05
-0.000209248
-0.000683161
-0.000978501
0.000188208
0.000214803
1.09201e-05
-2.95979e-05
0.000429317
0.000910552
0.000845547
0.000559221
0.000540549
0.000378543
0.000162087
0.000481504
0.000802499
0.000374844
-0.000299249
-0.000457149
-0.000288144
-0.000375335
-0.000791879
-0.00111845
0.00019841
0.000235727
8.10303e-05
-3.24954e-05
0.000340394
0.000880101
0.000868936
0.000517158
0.000441482
0.000330732
0.000130856
0.000350201
0.000634507
0.000282997
-0.000379358
-0.000629868
-0.000511596
-0.000552384
-0.000906092
-0.0012336
0.000211675
0.000252107
0.000151846
-1.99124e-05
0.000247292
0.000823397
0.000893483
0.000493022
0.000333569
0.000260231
0.00010251
0.000240261
0.000466992
0.000172041
-0.000463004
-0.000785398
-0.000725756
-0.000734158
-0.00102785
-0.00133621
0.000228244
0.000264457
0.000210476
9.06552e-06
0.000156368
0.000738069
0.000907673
0.000489794
0.000229476
0.000166313
6.35093e-05
0.000149282
0.0003115
4.78765e-05
-0.000554049
-0.000928196
-0.000929986
-0.000918089
-0.00115397
-0.00143602
0.000248169
0.000273739
0.000258548
5.05235e-05
7.65532e-05
0.000625231
0.000898923
0.000506186
0.000143732
5.27036e-05
2.0203e-06
7.11784e-05
0.000174779
-7.92885e-05
-0.000651393
-0.00106218
-0.00112426
-0.00110489
-0.00128225
-0.00153508
0.000271249
0.000281273
0.000294151
9.91283e-05
1.34349e-05
0.000491153
0.000858606
0.000534427
8.55084e-05
-7.04904e-05
-8.6772e-05
-8.38537e-06
5.52382e-05
-0.000198893
-0.00075114
-0.00118884
-0.00130739
-0.00129468
-0.0014145
-0.00163078
0.000297073
0.000288424
0.000316652
0.000149755
-2.84164e-05
0.000346523
0.000781505
0.000559994
5.69865e-05
-0.000185512
-0.000199626
-0.000103316
-5.29735e-05
-0.000306565
-0.000846217
-0.00130751
-0.00147749
-0.00148447
-0.00155463
-0.00172209
0.000324348
0.000296276
0.000325922
0.000194903
-4.77128e-05
0.000204855
0.000667932
0.000566986
5.59098e-05
-0.000278476
-0.00032848
-0.000219756
-0.000161824
-0.000404158
-0.000931159
-0.0014154
-0.00163269
-0.00166892
-0.00170476
-0.00181262
0.000351779
0.000305756
0.00032364
0.000229571
-4.64802e-05
7.70513e-05
0.000523192
0.000542779
7.24188e-05
-0.000343183
-0.000457674
-0.000355631
-0.000282501
-0.00049713
-0.0010055
-0.00150894
-0.00177107
-0.00184126
-0.0018624
-0.00190889
0.000378142
0.000317165
0.00031241
0.000250397
-3.30038e-05
-2.97912e-05
0.000360228
0.000481404
8.95056e-05
-0.000379471
-0.000572766
-0.000504605
-0.000420292
-0.000595311
-0.00107134
-0.00158746
-0.00189156
-0.00199631
-0.00202001
-0.00201636
0.000402071
0.000330172
0.000290945
0.000255195
-1.47861e-05
-0.000111291
0.000193611
0.000384166
9.06109e-05
-0.000391979
-0.000664519
-0.000653203
-0.000571855
-0.000706856
-0.00113599
-0.00165143
-0.00199432
-0.00213169
-0.00216731
-0.00213396
0.000422589
0.000344226
0.000276498
0.000244533
6.3927e-07
-0.000166928
3.71596e-05
0.000256157
6.55568e-05
-0.000392937
-0.000731013
-0.000789152
-0.000730816
-0.000833616
-0.00120818
-0.00170452
-0.0020795
-0.00224903
-0.00229707
-0.00225242
0.000439084
0.000358063
0.000261845
0.00022048
6.7021e-06
-0.000203326
-0.000100284
0.000108352
9.81081e-06
-0.000396012
-0.000774829
-0.00090477
-0.000886246
-0.000970348
-0.00129314
-0.00175458
-0.00214773
-0.00235107
-0.00240909
-0.00236121
0.000451143
0.000370005
0.000247263
0.000186933
9.32078e-08
-0.000229124
-0.000215608
-4.45783e-05
-7.52683e-05
-0.000412599
-0.0008024
-0.000996891
-0.00102878
-0.00111045
-0.00138935
-0.00180835
-0.00220215
-0.00243751
-0.0025075
-0.00245514
0.000458559
0.00037851
0.000234444
0.000147847
-2.02807e-05
-0.00025195
-0.000310188
-0.00019054
-0.000183697
-0.000450392
-0.000824414
-0.00106724
-0.00115238
-0.00124493
-0.00149111
-0.00186822
-0.00224751
-0.00250677
-0.00259418
-0.00253553
0.000461164
0.000382362
0.000222068
0.000106842
-5.31078e-05
-0.000278209
-0.000387704
-0.000324038
-0.000304941
-0.000509935
-0.000850631
-0.00112004
-0.00125414
-0.00136644
-0.00159167
-0.00193181
-0.00228802
-0.0025582
-0.00266661
-0.00260498
0.000459058
0.000380604
0.000208696
6.5839e-05
-9.59228e-05
-0.000311618
-0.000454356
-0.000443818
-0.000429627
-0.000587095
-0.000886732
-0.00116289
-0.00133537
-0.00146997
-0.00168302
-0.00199361
-0.0023246
-0.00259297
-0.00271981
-0.00266228
0.000452357
0.00037302
0.000192387
2.51413e-05
-0.000145594
-0.000353861
-0.000516526
-0.000550838
-0.000551666
-0.000676719
-0.000934221
-0.00120223
-0.0013988
-0.00155349
-0.0017592
-0.00204617
-0.00235447
-0.0026128
-0.00275065
-0.00270278
0.00044078
0.000359631
0.000172073
-1.58069e-05
-0.000199401
-0.00040476
-0.000579818
-0.000648184
-0.000667923
-0.000772971
-0.000991631
-0.00124109
-0.00144778
-0.00161705
-0.00181666
-0.0020825
-0.00237138
-0.00261711
-0.00275819
-0.00272093
0.00042417
0.000340545
0.00014717
-5.81595e-05
-0.000256337
-0.000463019
-0.000646549
-0.00074046
-0.000779631
-0.000872387
-0.00105663
-0.00128079
-0.00148485
-0.00166029
-0.00185248
-0.00209686
-0.00236663
-0.00259979
-0.00273891
-0.00271044
0.000402483
0.000315971
0.000117274
-0.000102829
-0.00031622
-0.000528282
-0.000718471
-0.000831143
-0.000887919
-0.000973573
-0.00112751
-0.00132255
-0.00151236
-0.00168259
-0.00186282
-0.00208315
-0.00233001
-0.00254915
-0.00268365
-0.00266213
0.000375552
0.000286216
8.22301e-05
-0.000150932
-0.000378868
-0.000599213
-0.000797442
-0.000925157
-0.000996142
-0.00107667
-0.00120357
-0.00136721
-0.0015327
-0.00168447
-0.0018434
-0.00203339
-0.00224894
-0.00244694
-0.00257291
-0.00255733
0.000343505
0.000251363
4.21146e-05
-0.000203072
-0.000445465
-0.000675548
-0.000882696
-0.00102544
-0.00111073
-0.00118754
-0.00128892
-0.00141734
-0.00154793
-0.00166635
-0.00178885
-0.00193721
-0.00210856
-0.0022702
-0.0023743
-0.00235657
0.000306983
0.000211316
-3.86617e-06
-0.00025933
-0.000515765
-0.000757879
-0.00097571
-0.00113282
-0.00123417
-0.00131349
-0.0013961
-0.00148733
-0.00156913
-0.00163248
-0.00169109
-0.0017709
-0.00188142
-0.00199536
-0.00206681
-0.00203407
0.000267513
0.000165946
-5.60654e-05
-0.00032084
-0.000590257
-0.000845345
-0.00107663
-0.00125066
-0.00136895
-0.00145614
-0.00153251
-0.00160261
-0.0016422
-0.00162945
-0.00156361
-0.00147726
-0.00141704
-0.00140659
-0.00145351
-0.00149808
0.00022474
0.000115683
-0.000112353
-0.000386689
-0.000669813
-0.000940323
-0.0011858
-0.00137922
-0.00151822
-0.00161824
-0.00169689
-0.00176459
-0.00180327
-0.0017937
-0.00170202
-0.00146299
-0.0010302
-0.000442269
0.000143346
0.000555802
0.000177035
6.18993e-05
-0.000171247
-0.000453793
-0.000754369
-0.00104418
-0.00130735
-0.00151974
-0.00168104
-0.00180003
-0.00188755
-0.00193385
-0.00187928
-0.00166831
-0.00125442
-0.000642508
2.98276e-05
0.000602823
0.000970804
0.0010675
0.000124741
5.53374e-06
-0.000232002
-0.000522125
-0.000838588
-0.00115421
-0.00144663
-0.00168178
-0.00185142
-0.00195652
-0.00198949
-0.00192644
-0.00169388
-0.00123979
-0.000660516
-8.19249e-05
0.000414868
0.000784839
0.00100567
0.00104148
7.21962e-05
-5.24437e-05
-0.000297912
-0.000594917
-0.00091806
-0.00124928
-0.00157572
-0.00186525
-0.00207536
-0.00215072
-0.00202695
-0.00168855
-0.00121619
-0.000680435
-0.000143613
0.000342215
0.000756078
0.0010699
0.00124623
0.00122782
2.22542e-05
-0.000107709
-0.000364606
-0.000676942
-0.00101765
-0.00134446
-0.00161038
-0.00179563
-0.00188428
-0.00188875
-0.00183955
-0.00173057
-0.0015399
-0.00122165
-0.000717053
-5.85246e-05
0.000616819
0.00116319
0.00147955
0.00150826
-2.46539e-05
-0.000159579
-0.000413126
-0.00072472
-0.00107743
-0.00144196
-0.00178505
-0.00204151
-0.00213984
-0.00203426
-0.00174933
-0.00133171
-0.000844867
-0.000348131
0.000124645
0.000549825
0.000903526
0.00116257
0.00128944
0.00122881
-6.40212e-05
-0.000209068
-0.000478563
-0.000806574
-0.00116633
-0.00151516
-0.00180721
-0.00200291
-0.00206729
-0.00197613
-0.0017219
-0.00133558
-0.000876115
-0.000411618
1.38337e-05
0.00039189
0.000716483
0.000967883
0.00110611
0.00106799
0.0182041
0.0114097
0.00251473
-0.00385388
-0.00569345
-0.00501514
-0.00415369
-0.00371202
-0.00348556
-0.00328477
-0.00310685
-0.00299388
-0.00297591
-0.00303963
-0.00312481
-0.00317289
-0.00316392
-0.00314039
-0.00314955
-0.00318576
-0.00324922
-0.00333038
-0.00337714
-0.00340219
-0.00347397
-0.00357985
-0.00366239
-0.00371479
-0.00376638
-0.00384447
-0.00394373
-0.00402267
-0.00406807
-0.00411817
-0.00418659
-0.00424799
-0.00429857
-0.00436062
-0.0044441
-0.00453683
-0.00462598
-0.00471037
-0.00479409
-0.00487039
-0.00493079
-0.00499
-0.00505366
-0.00511221
-0.00516884
-0.00524079
-0.00532197
-0.00540576
-0.00549118
-0.00557728
-0.00565797
-0.00573169
-0.00581415
-0.00589496
-0.00596851
-0.00603758
-0.00610907
-0.00617974
-0.00624874
-0.00632822
-0.00640918
-0.00648187
-0.00656455
-0.00665658
-0.00675626
-0.00685162
-0.00693957
-0.00702938
-0.00711256
-0.00720472
-0.00730325
-0.00739671
-0.00750008
-0.00758405
-0.00766346
-0.00776029
-0.00783785
-0.00792339
-0.00802769
-0.00810065
-0.00818463
-0.00828754
-0.00834947
-0.00841689
-0.00851537
-0.00859019
-0.00864347
-0.00871565
-0.00879738
-0.00885641
-0.00892045
-0.00898513
-0.00904807
-0.00910864
-0.00917631
-0.00925521
0.0173412
0.0112503
0.00260056
-0.00371036
-0.0056057
-0.00497276
-0.0041284
-0.00369563
-0.00347416
-0.00327587
-0.00309924
-0.00298701
-0.00296961
-0.003034
-0.00311992
-0.00316867
-0.00316017
-0.00313692
-0.00314635
-0.00318281
-0.00324652
-0.003328
-0.00337498
-0.00340009
-0.00347196
-0.00357802
-0.00366072
-0.00371321
-0.00376485
-0.003843
-0.00394237
-0.00402143
-0.0040669
-0.00411705
-0.00418555
-0.00424703
-0.00429766
-0.00435975
-0.00444328
-0.00453607
-0.00462527
-0.0047097
-0.00479346
-0.00486981
-0.00493023
-0.00498947
-0.00505316
-0.00511173
-0.00516837
-0.00524033
-0.00532154
-0.00540534
-0.00549078
-0.0055769
-0.00565761
-0.00573134
-0.00581381
-0.00589463
-0.0059682
-0.00603728
-0.00610878
-0.00617947
-0.00624848
-0.00632796
-0.00640893
-0.00648163
-0.00656431
-0.00665636
-0.00675604
-0.00685142
-0.00693937
-0.00702919
-0.00711238
-0.00720455
-0.00730309
-0.00739656
-0.00749993
-0.00758392
-0.00766334
-0.00776017
-0.00783774
-0.00792329
-0.0080276
-0.00810057
-0.00818455
-0.00828747
-0.0083494
-0.00841682
-0.00851531
-0.00859014
-0.00864343
-0.00871561
-0.00879734
-0.00885637
-0.00892041
-0.0089851
-0.00904804
-0.00910862
-0.00917629
-0.00925519
0.0165559
0.0111115
0.00278755
-0.00343914
-0.00545437
-0.00491615
-0.0040996
-0.00367389
-0.00345744
-0.00326342
-0.00309
-0.00297985
-0.00296355
-0.00302851
-0.00311488
-0.00316421
-0.00315631
-0.00313354
-0.00314331
-0.00318
-0.00324392
-0.00332573
-0.00337297
-0.00339818
-0.00347018
-0.00357642
-0.00365924
-0.0037118
-0.0037635
-0.00384171
-0.00394118
-0.00402034
-0.00406584
-0.00411604
-0.00418463
-0.00424617
-0.00429683
-0.00435895
-0.00444254
-0.0045354
-0.00462465
-0.00470911
-0.00479291
-0.00486929
-0.00492975
-0.004989
-0.00505271
-0.00511131
-0.00516795
-0.00523993
-0.00532116
-0.00540498
-0.00549044
-0.00557658
-0.0056573
-0.00573103
-0.00581351
-0.00589435
-0.00596793
-0.00603702
-0.00610853
-0.00617923
-0.00624824
-0.00632773
-0.00640872
-0.00648142
-0.00656411
-0.00665616
-0.00675586
-0.00685124
-0.00693921
-0.00702903
-0.00711222
-0.00720439
-0.00730295
-0.00739642
-0.00749981
-0.00758381
-0.00766322
-0.00776007
-0.00783765
-0.0079232
-0.00802752
-0.0081005
-0.00818447
-0.00828741
-0.00834935
-0.00841676
-0.00851526
-0.0085901
-0.00864339
-0.00871557
-0.0087973
-0.00885634
-0.00892038
-0.00898508
-0.00904801
-0.0091086
-0.00917627
-0.00925518
0.0158141
0.0109682
0.0030184
-0.00309897
-0.0052474
-0.00483553
-0.00405625
-0.00363897
-0.00342983
-0.00324332
-0.00307612
-0.00297036
-0.00295641
-0.003022
-0.00310837
-0.00315809
-0.00315117
-0.00312943
-0.00313983
-0.00317667
-0.00324063
-0.00332275
-0.00337047
-0.00339604
-0.00346822
-0.00357456
-0.0036575
-0.00371024
-0.0037621
-0.00384037
-0.00393989
-0.00401912
-0.00406468
-0.00411494
-0.00418361
-0.0042452
-0.00429589
-0.00435806
-0.00444173
-0.00453466
-0.00462398
-0.00470847
-0.00479231
-0.00486875
-0.00492923
-0.0049885
-0.00505225
-0.00511086
-0.00516751
-0.00523951
-0.00532077
-0.00540461
-0.00549008
-0.00557624
-0.00565698
-0.00573072
-0.00581321
-0.00589407
-0.00596765
-0.00603675
-0.00610828
-0.00617898
-0.006248
-0.0063275
-0.0064085
-0.00648121
-0.0065639
-0.00665596
-0.00675566
-0.00685107
-0.00693903
-0.00702887
-0.00711206
-0.00720423
-0.0073028
-0.00739629
-0.00749969
-0.0075837
-0.00766311
-0.00775997
-0.00783755
-0.0079231
-0.00802744
-0.00810042
-0.00818439
-0.00828735
-0.00834929
-0.0084167
-0.00851521
-0.00859006
-0.00864334
-0.00871552
-0.00879727
-0.00885631
-0.00892035
-0.00898505
-0.00904799
-0.00910858
-0.00917625
-0.00925517
0.0150803
0.0107943
0.00325194
-0.00273971
-0.00501796
-0.00474304
-0.00400517
-0.00359441
-0.0033921
-0.00321487
-0.00305631
-0.00295723
-0.00294714
-0.0030137
-0.0030996
-0.00314946
-0.00314399
-0.00312412
-0.0031357
-0.0031727
-0.00323636
-0.00331857
-0.00336704
-0.0033934
-0.00346586
-0.0035721
-0.00365512
-0.00370827
-0.00376051
-0.00383886
-0.00393832
-0.0040176
-0.0040633
-0.00411367
-0.00418239
-0.00424398
-0.0042947
-0.00435694
-0.0044407
-0.00453374
-0.00462315
-0.00470771
-0.0047916
-0.00486808
-0.00492861
-0.00498793
-0.00505172
-0.00511034
-0.00516699
-0.00523903
-0.00532033
-0.00540419
-0.00548968
-0.00557586
-0.00565663
-0.00573037
-0.00581288
-0.00589376
-0.00596735
-0.00603645
-0.00610799
-0.00617872
-0.00624774
-0.00632725
-0.00640827
-0.00648097
-0.00656367
-0.00665574
-0.00675545
-0.00685087
-0.00693884
-0.00702868
-0.00711188
-0.00720405
-0.00730264
-0.00739613
-0.00749955
-0.00758357
-0.00766297
-0.00775985
-0.00783744
-0.00792298
-0.00802735
-0.00810033
-0.0081843
-0.00828728
-0.00834922
-0.00841663
-0.00851516
-0.00859001
-0.00864328
-0.00871547
-0.00879723
-0.00885627
-0.00892031
-0.00898502
-0.00904796
-0.00910855
-0.00917623
-0.00925517
0.01435
0.0105854
0.00347628
-0.00237571
-0.00477674
-0.00464514
-0.00395294
-0.00354665
-0.00334911
-0.00318108
-0.00303214
-0.00294098
-0.00293572
-0.00300346
-0.00308853
-0.00313833
-0.00313474
-0.00311752
-0.00313087
-0.00316819
-0.0032312
-0.00331315
-0.00336259
-0.00339025
-0.00346303
-0.00356884
-0.00365182
-0.00370565
-0.00375857
-0.00383703
-0.00393631
-0.00401565
-0.00406166
-0.00411224
-0.00418093
-0.00424246
-0.00429319
-0.0043555
-0.00443935
-0.00453252
-0.00462207
-0.00470673
-0.00479068
-0.00486725
-0.00492787
-0.00498726
-0.00505108
-0.0051097
-0.00516637
-0.00523845
-0.0053198
-0.00540369
-0.00548921
-0.00557542
-0.00565622
-0.00572998
-0.00581252
-0.00589341
-0.005967
-0.00603612
-0.00610767
-0.00617842
-0.00624744
-0.00632696
-0.00640799
-0.00648071
-0.00656341
-0.00665549
-0.00675521
-0.00685065
-0.00693863
-0.00702848
-0.00711167
-0.00720384
-0.00730244
-0.00739594
-0.00749938
-0.00758341
-0.0076628
-0.0077597
-0.0078373
-0.00792285
-0.00802724
-0.00810022
-0.00818419
-0.0082872
-0.00834914
-0.00841654
-0.00851509
-0.00858995
-0.00864322
-0.00871542
-0.00879718
-0.00885622
-0.00892027
-0.00898498
-0.00904792
-0.00910852
-0.0091762
-0.00925518
0.0136292
0.0103447
0.00368758
-0.00201015
-0.00452464
-0.00454191
-0.0039009
-0.00349803
-0.00330318
-0.00314393
-0.00300509
-0.00292254
-0.00292261
-0.00299166
-0.00307573
-0.00312536
-0.00312396
-0.0031099
-0.00312545
-0.00316323
-0.0032254
-0.0033068
-0.00335737
-0.00338671
-0.00345979
-0.00356478
-0.00364755
-0.00370229
-0.00375617
-0.00383472
-0.00393363
-0.00401305
-0.00405965
-0.00411063
-0.00417928
-0.00424068
-0.00429141
-0.00435374
-0.00443762
-0.00453089
-0.00462063
-0.00470543
-0.00478947
-0.00486616
-0.00492696
-0.00498647
-0.00505031
-0.00510892
-0.00516561
-0.00523774
-0.00531914
-0.00540308
-0.00548864
-0.00557488
-0.00565572
-0.00572953
-0.00581209
-0.005893
-0.0059666
-0.00603572
-0.0061073
-0.00617808
-0.00624712
-0.00632664
-0.00640768
-0.0064804
-0.00656313
-0.00665521
-0.00675493
-0.00685039
-0.00693838
-0.00702824
-0.00711141
-0.00720358
-0.00730221
-0.00739572
-0.00749918
-0.00758321
-0.00766259
-0.00775951
-0.00783712
-0.00792268
-0.00802709
-0.00810007
-0.00818405
-0.00828709
-0.00834902
-0.00841643
-0.008515
-0.00858987
-0.00864313
-0.00871534
-0.00879712
-0.00885616
-0.00892021
-0.00898493
-0.00904786
-0.00910848
-0.00917616
-0.00925519
0.0129251
0.0100743
0.00388113
-0.00164507
-0.00426035
-0.00443118
-0.00384844
-0.00344911
-0.00325503
-0.00310402
-0.00297573
-0.00290235
-0.00290815
-0.0029787
-0.00306174
-0.00311121
-0.00311219
-0.00310158
-0.00311954
-0.0031579
-0.00321916
-0.00329992
-0.00335174
-0.00338301
-0.00345629
-0.0035601
-0.00364248
-0.00369829
-0.00375333
-0.00383188
-0.00393014
-0.00400964
-0.0040571
-0.00410873
-0.00417742
-0.00423873
-0.00428949
-0.00435181
-0.00443558
-0.00452887
-0.00461876
-0.0047037
-0.00478782
-0.00486471
-0.00492581
-0.00498554
-0.00504941
-0.005108
-0.0051647
-0.00523687
-0.00531832
-0.00540232
-0.0054879
-0.00557418
-0.0056551
-0.00572897
-0.00581158
-0.0058925
-0.00596612
-0.00603526
-0.00610687
-0.0061777
-0.00624675
-0.00632626
-0.0064073
-0.00648006
-0.00656281
-0.00665488
-0.0067546
-0.00685008
-0.0069381
-0.00702796
-0.00711111
-0.00720327
-0.00730192
-0.00739544
-0.00749892
-0.00758296
-0.00766233
-0.00775925
-0.00783688
-0.00792246
-0.00802689
-0.00809988
-0.00818387
-0.00828693
-0.00834886
-0.00841629
-0.00851488
-0.00858975
-0.00864302
-0.00871525
-0.00879703
-0.00885608
-0.00892013
-0.00898486
-0.00904779
-0.00910842
-0.00917611
-0.00925519
0.0122432
0.00977567
0.00405214
-0.00128188
-0.0039822
-0.00431065
-0.00379497
-0.00340061
-0.00320535
-0.0030617
-0.00294423
-0.00288057
-0.00289256
-0.00296484
-0.00304693
-0.00309625
-0.00309971
-0.00309272
-0.00311319
-0.0031522
-0.0032126
-0.00329272
-0.00334591
-0.00337922
-0.00345263
-0.00355503
-0.0036369
-0.00369388
-0.00375019
-0.00382862
-0.00392596
-0.0040054
-0.0040539
-0.00410639
-0.00417526
-0.0042366
-0.00428753
-0.00434986
-0.00443344
-0.00452661
-0.00461656
-0.00470155
-0.00478568
-0.00486278
-0.00492433
-0.00498441
-0.00504838
-0.00510697
-0.00516367
-0.00523584
-0.00531732
-0.00540136
-0.00548697
-0.00557328
-0.0056543
-0.00572827
-0.00581094
-0.00589189
-0.00596554
-0.00603471
-0.00610637
-0.00617727
-0.00624635
-0.00632583
-0.00640686
-0.00647965
-0.00656244
-0.00665449
-0.0067542
-0.00684971
-0.00693776
-0.00702763
-0.00711075
-0.00720289
-0.00730156
-0.0073951