/*--------------------------------*- C++ -*----------------------------------*\
| =========                 |                                                 |
| \\      /  F ield         | OpenFOAM: The Open Source CFD Toolbox           |
|  \\    /   O peration     | Version:  3.0.1                                 |
|   \\  /    A nd           | Web:      www.OpenFOAM.org                      |
|    \\/     M anipulation  |                                                 |
\*---------------------------------------------------------------------------*/
FoamFile
{
    version     2.0;
    format      ascii;
    class       surfaceScalarField;
    location    "1.1";
    object      phi;
}
// * * * * * * * * * * * * * * * * * * * * * * * * * * * * * * * * * * * * * //

dimensions      [0 3 -1 0 0 0 0];

internalField   nonuniform List<scalar> 
19000
(
1.16724e-06
2.21397e-08
1.16517e-06
-2.579e-07
1.20901e-06
-4.53746e-10
1.16939e-06
5.06414e-07
1.13438e-06
-1.04407e-07
1.16249e-06
1.06933e-07
1.17994e-06
-5.09107e-07
1.16215e-06
-9.77439e-08
1.17407e-06
1.12196e-07
1.1565e-06
-1.96995e-08
1.17261e-06
2.63356e-07
1.16576e-06
2.73087e-07
1.16251e-06
-3.78714e-08
1.16478e-06
-8.83466e-09
1.17069e-06
-1.67651e-07
1.16354e-06
-2.21635e-08
1.17209e-06
-1.59037e-07
1.16383e-06
-5.15223e-08
1.16504e-06
-6.69428e-08
2.53758e-09
1.1367e-06
1.2219e-06
2.44987e-08
1.22065e-06
-2.56649e-07
1.26482e-06
-4.46207e-08
1.23117e-06
5.40067e-07
1.19325e-06
-6.64865e-08
1.2219e-06
7.82804e-08
1.23952e-06
-5.2673e-07
1.22311e-06
-8.13327e-08
1.23115e-06
1.04157e-07
1.21741e-06
-5.96383e-09
1.22475e-06
2.56015e-07
1.23059e-06
2.67253e-07
1.21822e-06
-2.55054e-08
1.22895e-06
-1.95642e-08
1.22356e-06
-1.62257e-07
1.23145e-06
-3.00535e-08
1.2216e-06
-1.49186e-07
1.23422e-06
-6.41465e-08
1.20981e-06
-4.25356e-08
-6.75507e-09
1.21911e-06
1.2784e-06
2.88782e-08
1.2801e-06
-2.58346e-07
1.31978e-06
-8.43035e-08
1.29781e-06
5.62044e-07
1.25614e-06
-2.48176e-08
1.28359e-06
5.08329e-08
1.29807e-06
-5.41216e-07
1.28968e-06
-7.29402e-08
1.28981e-06
1.04028e-07
1.2837e-06
1.44137e-10
1.28181e-06
2.579e-07
1.29547e-06
2.53596e-07
1.27856e-06
-8.59316e-09
1.2888e-06
-2.98023e-08
1.27984e-06
-1.53298e-07
1.28856e-06
-3.87772e-08
1.27708e-06
-1.37709e-07
1.2857e-06
-7.27624e-08
1.27015e-06
-2.69807e-08
-1.08574e-09
1.26448e-06
1.33757e-06
3.54113e-08
1.34312e-06
-2.63901e-07
1.37505e-06
-1.16233e-07
1.36422e-06
5.72878e-07
1.32228e-06
1.7122e-08
1.34559e-06
2.75255e-08
1.35544e-06
-5.51065e-07
1.35501e-06
-7.25117e-08
1.35032e-06
1.08713e-07
1.34892e-06
1.55171e-09
1.34479e-06
2.62027e-07
1.35704e-06
2.41343e-07
1.34329e-06
5.1604e-09
1.34688e-06
-3.33887e-08
1.33973e-06
-1.46155e-07
1.34501e-06
-4.4057e-08
1.33612e-06
-1.28817e-07
1.34033e-06
-7.69689e-08
1.3302e-06
-1.6851e-08
7.70822e-09
1.32141e-06
1.40048e-06
4.32894e-08
1.40915e-06
-2.7258e-07
1.43168e-06
-1.38755e-07
1.4282e-06
5.76357e-07
1.39138e-06
5.39389e-08
1.40854e-06
1.0369e-08
1.41381e-06
-5.56336e-07
1.41802e-06
-7.67204e-08
1.41315e-06
1.13576e-07
1.41286e-06
1.84356e-09
1.41096e-06
2.63927e-07
1.41913e-06
2.33178e-07
1.40973e-06
1.45581e-08
1.40879e-06
-3.24554e-08
1.40193e-06
-1.39293e-07
1.40591e-06
-4.80388e-08
1.39765e-06
-1.20552e-07
1.40006e-06
-7.9378e-08
1.39173e-06
-8.52421e-09
1.65572e-08
1.38288e-06
1.46796e-06
5.10073e-08
1.4779e-06
-2.82522e-07
1.49116e-06
-1.52013e-07
1.4907e-06
5.76816e-07
1.46335e-06
8.1287e-08
1.47445e-06
-7.26373e-10
1.4756e-06
-5.57491e-07
1.4813e-06
-8.24201e-08
1.47892e-06
1.15955e-07
1.4784e-06
2.36261e-09
1.47881e-06
2.63526e-07
1.48448e-06
2.27509e-07
1.47761e-06
2.14207e-08
1.47523e-06
-3.00752e-08
1.4675e-06
-1.31566e-07
1.47077e-06
-5.13052e-08
1.46262e-06
-1.12405e-07
1.46338e-06
-8.01351e-08
1.45649e-06
-1.62933e-09
2.57438e-08
1.4473e-06
1.54012e-06
5.71047e-08
1.54939e-06
-2.91795e-07
1.55481e-06
-1.57432e-07
1.55464e-06
5.76982e-07
1.53803e-06
9.78994e-08
1.54488e-06
-7.56996e-09
1.54214e-06
-5.54752e-07
1.54763e-06
-8.79167e-08
1.54795e-06
1.15633e-07
1.5475e-06
2.82228e-09
1.54899e-06
2.62032e-07
1.55388e-06
2.22614e-07
1.5482e-06
2.71098e-08
1.54568e-06
-2.75578e-08
1.53735e-06
-1.23234e-07
1.53966e-06
-5.36236e-08
1.53169e-06
-1.04428e-07
1.53056e-06
-7.90074e-08
1.52491e-06
4.0166e-09
3.53556e-08
1.5153e-06
1.61638e-06
6.08534e-08
1.62374e-06
-2.99154e-07
1.62328e-06
-1.5697e-07
1.62279e-06
5.77471e-07
1.61536e-06
1.05332e-07
1.62008e-06
-1.2295e-08
1.61366e-06
-5.48333e-07
1.61834e-06
-9.25927e-08
1.62035e-06
1.13622e-07
1.62048e-06
2.69135e-09
1.62249e-06
2.60023e-07
1.62735e-06
2.17751e-07
1.62234e-06
3.21203e-08
1.61997e-06
-2.51877e-08
1.61156e-06
-1.14823e-07
1.61287e-06
-5.49312e-08
1.60514e-06
-9.66977e-08
1.60206e-06
-7.59309e-08
1.59737e-06
8.70487e-09
4.52675e-08
1.58746e-06
1.69603e-06
6.24025e-08
1.70103e-06
-3.04157e-07
1.69667e-06
-1.5261e-07
1.69663e-06
5.77509e-07
1.69554e-06
1.06426e-07
1.69952e-06
-1.62833e-08
1.68991e-06
-5.38721e-07
1.69365e-06
-9.63269e-08
1.6962e-06
1.1107e-07
1.69707e-06
1.82109e-09
1.69961e-06
2.57486e-07
1.70467e-06
2.12687e-07
1.70029e-06
3.65047e-08
1.69807e-06
-2.29713e-08
1.68997e-06
-1.06723e-07
1.6903e-06
-5.52592e-08
1.68297e-06
-8.93657e-08
1.67808e-06
-7.10419e-08
1.67404e-06
1.27456e-08
5.52233e-08
1.66408e-06
1.77871e-06
6.24164e-08
1.7814e-06
-3.06853e-07
1.77488e-06
-1.46087e-07
1.77647e-06
5.75921e-07
1.77894e-06
1.03959e-07
1.78263e-06
-1.99814e-08
1.77053e-06
-5.26621e-07
1.77342e-06
-9.92131e-08
1.77572e-06
1.08771e-07
1.77713e-06
4.05307e-10
1.78031e-06
2.54309e-07
1.78569e-06
2.07306e-07
1.78204e-06
4.0155e-08
1.77991e-06
-2.08408e-08
1.7724e-06
-9.92135e-08
1.77176e-06
-5.46211e-08
1.76498e-06
-8.25837e-08
1.75859e-06
-6.46502e-08
1.7549e-06
1.64353e-08
6.48384e-08
1.74528e-06
1.86456e-06
6.16084e-08
1.86517e-06
-3.07464e-07
1.85782e-06
-1.38736e-07
1.86195e-06
5.71787e-07
1.86589e-06
1.0002e-07
1.86919e-06
-2.32806e-08
1.85531e-06
-5.1274e-07
1.85755e-06
-1.01451e-07
1.85922e-06
1.07101e-07
1.86087e-06
-1.25362e-09
1.86469e-06
2.50498e-07
1.87043e-06
2.01557e-07
1.86765e-06
4.29442e-08
1.86547e-06
-1.86603e-08
1.85873e-06
-9.2479e-08
1.85714e-06
-5.30287e-08
1.85096e-06
-7.64076e-08
1.84349e-06
-5.71817e-08
1.83986e-06
2.007e-08
7.36511e-08
1.83105e-06
1.95397e-06
6.04795e-08
1.95276e-06
-3.06253e-07
1.94543e-06
-1.31404e-07
1.95253e-06
5.64686e-07
1.95664e-06
9.59086e-08
1.95931e-06
-2.59483e-08
1.94422e-06
-4.97652e-07
1.94604e-06
-1.0327e-07
1.94701e-06
1.06127e-07
1.94866e-06
-2.9062e-09
1.95302e-06
2.46142e-07
1.95908e-06
1.95499e-07
1.95723e-06
4.47872e-08
1.95481e-06
-1.62375e-08
1.94893e-06
-8.66026e-08
1.94644e-06
-5.05344e-08
1.94079e-06
-7.07534e-08
1.93272e-06
-4.91192e-08
1.92885e-06
2.39414e-08
8.12391e-08
1.92126e-06
2.04738e-06
5.92885e-08
2.04465e-06
-3.03522e-07
2.03772e-06
-1.24473e-07
2.04772e-06
5.54684e-07
2.05136e-06
9.22652e-08
2.05328e-06
-2.78688e-08
2.03739e-06
-4.81755e-07
2.03899e-06
-1.04867e-07
2.03937e-06
1.05747e-07
2.04086e-06
-4.39934e-09
2.04567e-06
2.41334e-07
2.05186e-06
1.89305e-07
2.051e-06
4.56472e-08
2.04813e-06
-1.33694e-08
2.04309e-06
-8.15629e-08
2.03982e-06
-4.72594e-08
2.03446e-06
-6.53988e-08
2.02629e-06
-4.09471e-08
2.02197e-06
2.82635e-08
8.73707e-08
2.01584e-06
2.14516e-06
5.81311e-08
2.14125e-06
-2.99613e-07
2.13476e-06
-1.17988e-07
2.14726e-06
5.4219e-07
2.15024e-06
8.92802e-08
2.15147e-06
-2.90953e-08
2.13502e-06
-4.65306e-07
2.13652e-06
-1.06369e-07
2.13648e-06
1.05787e-07
2.13774e-06
-5.65254e-09
2.14296e-06
2.36114e-07
2.14905e-06
1.83214e-07
2.14917e-06
4.55257e-08
2.1457e-06
-9.90642e-09
2.14138e-06
-7.72407e-08
2.13753e-06
-4.3403e-08
2.13215e-06
-6.00214e-08
2.12429e-06
-3.30919e-08
2.11944e-06
3.31141e-08
9.20665e-08
2.11475e-06
2.2476e-06
5.70242e-08
2.24286e-06
-2.94873e-07
2.23669e-06
-1.11817e-07
2.2511e-06
5.2777e-07
2.25349e-06
8.68943e-08
2.25419e-06
-2.97933e-08
2.23735e-06
-4.48464e-07
2.2388e-06
-1.07821e-07
2.23853e-06
1.06059e-07
2.23949e-06
-6.61737e-09
2.24515e-06
2.30458e-07
2.25089e-06
1.77475e-07
2.25196e-06
4.4457e-08
2.24785e-06
-5.79812e-09
2.24404e-06
-7.34299e-08
2.23987e-06
-3.92317e-08
2.2341e-06
-5.42602e-08
2.22688e-06
-2.58727e-08
2.22159e-06
3.84081e-08
9.55773e-08
2.21808e-06
2.35494e-06
5.59585e-08
2.34968e-06
-2.8961e-07
2.34365e-06
-1.05791e-07
2.35943e-06
5.1199e-07
2.36137e-06
8.49571e-08
2.36173e-06
-3.01558e-08
2.34461e-06
-4.31345e-07
2.34599e-06
-1.09193e-07
2.34566e-06
1.06387e-07
2.34629e-06
-7.24807e-09
2.35245e-06
2.24292e-07
2.35764e-06
1.72292e-07
2.35958e-06
4.25134e-08
2.35489e-06
-1.11059e-09
2.35132e-06
-6.98584e-08
2.34713e-06
-3.50443e-08
2.34068e-06
-4.78024e-08
2.33426e-06
-1.94546e-08
2.32872e-06
4.39421e-08
9.82744e-08
2.32603e-06
2.46743e-06
5.49215e-08
2.46188e-06
-2.84056e-07
2.45586e-06
-9.97763e-08
2.47254e-06
4.95309e-07
2.47418e-06
8.33173e-08
2.47436e-06
-3.03328e-08
2.45708e-06
-4.14059e-07
2.45829e-06
-1.10406e-07
2.45805e-06
1.06623e-07
2.4583e-06
-7.49188e-09
2.46506e-06
2.17531e-07
2.46955e-06
1.67796e-07
2.47225e-06
3.98189e-08
2.46716e-06
3.97916e-09
2.46351e-06
-6.62083e-08
2.45959e-06
-3.11262e-08
2.45227e-06
-4.04854e-08
2.4466e-06
-1.37823e-08
2.44113e-06
4.94126e-08
1.00548e-07
2.43886e-06
2.58531e-06
5.39051e-08
2.57962e-06
-2.78363e-07
2.57354e-06
-9.37002e-08
2.59079e-06
4.7806e-07
2.59225e-06
8.1854e-08
2.59232e-06
-3.03979e-08
2.57499e-06
-3.96727e-07
2.57594e-06
-1.11355e-07
2.57592e-06
1.06639e-07
2.57572e-06
-7.29217e-09
2.58314e-06
2.10112e-07
2.58692e-06
1.6402e-07
2.59018e-06
3.65595e-08
2.58495e-06
9.2081e-09
2.58088e-06
-6.21447e-08
2.57746e-06
-2.77023e-08
2.56932e-06
-3.23478e-08
2.56411e-06
-8.57116e-09
2.55908e-06
5.4439e-08
1.02725e-07
2.55691e-06
2.70883e-06
5.29046e-08
2.70308e-06
-2.72616e-07
2.69693e-06
-8.75483e-08
2.71452e-06
4.60467e-07
2.71591e-06
8.04722e-08
2.71585e-06
-3.03462e-08
2.69861e-06
-3.79479e-07
2.69918e-06
-1.11933e-07
2.69949e-06
1.06334e-07
2.6988e-06
-6.60497e-09
2.70689e-06
2.02027e-07
2.71e-06
1.60903e-07
2.71359e-06
3.29733e-08
2.70852e-06
1.4279e-08
2.70374e-06
-5.73699e-08
2.70093e-06
-2.48887e-08
2.69218e-06
-2.35958e-08
2.68704e-06
-3.4281e-09
2.68281e-06
5.86658e-08
1.0499e-07
2.68054e-06
2.83826e-06
5.19152e-08
2.83249e-06
-2.66852e-07
2.82629e-06
-8.13456e-08
2.84408e-06
4.42682e-07
2.84546e-06
7.90872e-08
2.84523e-06
-3.01132e-08
2.8282e-06
-3.6245e-07
2.82831e-06
-1.12043e-07
2.82901e-06
1.05636e-07
2.82782e-06
-5.41962e-09
2.83652e-06
1.93332e-07
2.8391e-06
1.58314e-07
2.84276e-06
2.93193e-08
2.83812e-06
1.89212e-08
2.83243e-06
-5.1687e-08
2.83019e-06
-2.2649e-08
2.82115e-06
-1.455e-08
2.81571e-06
2.01161e-09
2.8125e-06
6.18724e-08
1.0734e-07
2.81015e-06
2.97388e-06
5.09298e-08
2.96811e-06
-2.61076e-07
2.9619e-06
-7.51444e-08
2.97976e-06
4.24832e-07
2.98123e-06
7.76129e-08
2.98072e-06
-2.95996e-08
2.96403e-06
-3.45764e-07
2.9636e-06
-1.11617e-07
2.96473e-06
1.0451e-07
2.96309e-06
-3.77512e-09
2.97227e-06
1.8415e-07
2.97452e-06
1.56065e-07
2.97797e-06
2.58693e-08
2.97397e-06
2.29174e-08
2.96731e-06
-4.50269e-08
2.96546e-06
-2.07984e-08
2.95648e-06
-5.57095e-09
2.95052e-06
7.97074e-09
2.94835e-06
6.40438e-08
1.09603e-07
2.94609e-06
3.116e-06
4.99377e-08
3.1102e-06
-2.5528e-07
3.10408e-06
-6.90176e-08
3.12187e-06
4.07037e-07
3.12353e-06
7.59563e-08
3.12262e-06
-2.86928e-08
3.10639e-06
-3.2953e-07
3.10539e-06
-1.1062e-07
3.10693e-06
1.02969e-07
3.10492e-06
-1.76458e-09
3.11441e-06
1.74662e-07
3.11653e-06
1.53945e-07
3.11953e-06
2.28637e-08
3.1163e-06
2.61483e-08
3.10873e-06
-3.74541e-08
3.10699e-06
-1.90594e-08
3.09841e-06
3.01438e-09
3.09186e-06
1.45129e-08
3.09056e-06
6.53489e-08
1.11492e-07
3.08867e-06
3.26492e-06
4.89245e-08
3.25908e-06
-2.49439e-07
3.25312e-06
-6.30569e-08
3.27073e-06
3.8943e-07
3.27267e-06
7.40191e-08
3.27126e-06
-2.72848e-08
3.25555e-06
-3.13824e-07
3.254e-06
-1.09066e-07
3.25588e-06
1.01084e-07
3.25366e-06
4.61421e-10
3.26324e-06
1.65075e-07
3.26542e-06
1.51768e-07
3.26781e-06
2.04737e-08
3.26535e-06
2.86057e-08
3.25702e-06
-2.9124e-08
3.25512e-06
-1.71549e-08
3.24716e-06
1.097e-08
3.24011e-06
2.15691e-08
3.23938e-06
6.60774e-08
1.12691e-07
3.23818e-06
3.42098e-06
4.78721e-08
3.41506e-06
-2.43519e-07
3.40938e-06
-5.73738e-08
3.42665e-06
3.72157e-07
3.42897e-06
7.17027e-08
3.42698e-06
-2.52913e-08
3.41183e-06
-2.98678e-07
3.40979e-06
-1.07026e-07
3.4119e-06
9.89784e-08
3.40964e-06
2.71893e-09
3.41912e-06
1.55597e-07
3.42148e-06
1.49402e-07
3.42317e-06
1.87871e-08
3.42139e-06
3.03799e-08
3.41251e-06
-2.02432e-08
3.41021e-06
-1.48465e-08
3.40304e-06
1.81372e-08
3.39561e-06
2.89977e-08
3.39512e-06
6.65637e-08
1.12929e-07
3.39489e-06
3.58452e-06
4.67591e-08
3.57848e-06
-2.37471e-07
3.5732e-06
-5.20991e-08
3.58998e-06
3.55377e-07
3.59277e-06
6.8915e-08
3.59015e-06
-2.26706e-08
3.57554e-06
-2.84065e-07
3.57314e-06
-1.04626e-07
3.57529e-06
9.6822e-08
3.57319e-06
4.82253e-09
3.5824e-06
1.46384e-07
3.58498e-06
1.4682e-07
3.58598e-06
1.77883e-08
3.58474e-06
3.16239e-08
3.57548e-06
-1.09902e-08
3.57262e-06
-1.19835e-08
3.56634e-06
2.44144e-08
3.55872e-06
3.66204e-08
3.55815e-06
6.71383e-08
1.1205e-07
3.55903e-06
3.7559e-06
4.55601e-08
3.74967e-06
-2.31235e-07
3.74494e-06
-4.73754e-08
3.76107e-06
3.3925e-07
3.7644e-06
6.55854e-08
3.76117e-06
-1.94401e-08
3.74699e-06
-2.69885e-07
3.74442e-06
-1.02054e-07
3.74644e-06
9.48042e-08
3.74463e-06
6.62482e-09
3.75351e-06
1.37507e-07
3.75622e-06
1.44114e-07
3.75662e-06
1.73879e-08
3.75573e-06
3.25072e-08
3.74625e-06
-1.50918e-09
3.74274e-06
-8.46737e-09
3.73743e-06
2.97172e-08
3.72982e-06
4.42349e-08
3.72885e-06
6.8105e-08
1.10061e-07
3.73084e-06
3.9355e-06
4.4246e-08
3.929e-06
-2.24732e-07
3.92498e-06
-4.33534e-08
3.9403e-06
3.23928e-07
3.9442e-06
6.16848e-08
3.94045e-06
-1.56874e-08
3.92654e-06
-2.55974e-07
3.92403e-06
-9.95436e-08
3.92573e-06
9.31018e-08
3.92428e-06
8.06934e-09
3.93288e-06
1.28915e-07
3.93552e-06
1.41468e-07
3.93542e-06
1.74906e-08
3.93479e-06
3.31369e-08
3.92515e-06
8.12601e-09
3.92092e-06
-4.23268e-09
3.91666e-06
3.39797e-08
3.9093e-06
5.15883e-08
3.90769e-06
6.97143e-08
1.07161e-07
3.91059e-06
4.12371e-06
4.27837e-08
4.11685e-06
-2.17868e-07
4.11368e-06
-4.0184e-08
4.12807e-06
3.09534e-07
4.13252e-06
5.72377e-08
4.12841e-06
-1.15808e-08
4.11454e-06
-2.42098e-07
4.11235e-06
-9.73584e-08
4.1136e-06
9.18484e-08
4.11245e-06
9.22681e-09
4.12093e-06
1.20428e-07
4.12329e-06
1.39111e-07
4.1227e-06
1.80855e-08
4.12231e-06
3.35204e-08
4.11258e-06
1.78534e-08
4.10759e-06
7.62733e-10
4.10434e-06
3.72297e-08
4.09757e-06
5.83622e-08
4.09518e-06
7.2099e-08
1.03759e-07
4.09858e-06
4.32095e-06
4.11377e-08
4.31361e-06
-2.10531e-07
4.31143e-06
-3.80058e-08
4.32482e-06
2.96149e-07
4.32973e-06
5.23277e-08
4.32552e-06
-7.36985e-09
4.31138e-06
-2.27958e-07
4.30978e-06
-9.57637e-08
4.31054e-06
9.10883e-08
4.30946e-06
1.03105e-08
4.31808e-06
1.11811e-07
4.31998e-06
1.37204e-07
4.31874e-06
1.93266e-08
4.31867e-06
3.35914e-08
4.30903e-06
2.74956e-08
4.30321e-06
6.58348e-09
4.30084e-06
3.95981e-08
4.29497e-06
6.42294e-08
4.29187e-06
7.52038e-08
1.0041e-07
4.29522e-06
4.52764e-06
3.92708e-08
4.51971e-06
-2.02604e-07
4.51864e-06
-3.69357e-08
4.53101e-06
2.83782e-07
4.53623e-06
4.71087e-08
4.53222e-06
-3.35883e-09
4.5175e-06
-2.13235e-07
4.51669e-06
-9.49563e-08
4.51705e-06
9.07277e-08
4.51573e-06
1.16295e-08
4.52465e-06
1.02896e-07
4.52609e-06
1.35763e-07
4.52388e-06
2.15348e-08
4.52422e-06
3.32525e-08
4.51495e-06
3.67595e-08
4.5083e-06
1.32328e-08
4.50658e-06
4.13263e-08
4.50186e-06
6.89491e-08
4.4983e-06
7.87623e-08
9.76681e-08
4.50104e-06
4.74424e-06
3.71477e-08
4.7356e-06
-1.93968e-07
4.73572e-06
-3.70543e-08
4.74716e-06
2.72346e-07
4.75243e-06
4.18375e-08
4.74898e-06
9.19403e-11
4.73337e-06
-1.97629e-07
4.73342e-06
-9.50036e-08
4.73363e-06
9.05201e-08
4.73171e-06
1.35492e-08
4.74096e-06
9.36402e-08
4.74209e-06
1.34635e-07
4.73857e-06
2.50561e-08
4.73929e-06
3.25318e-08
4.73086e-06
4.5185e-08
4.72343e-06
2.06658e-08
4.72203e-06
4.27295e-08
4.71856e-06
7.24205e-08
4.71493e-06
8.23848e-08
9.5882e-08
4.71672e-06
4.97121e-06
3.47387e-08
4.96176e-06
-1.84517e-07
4.96309e-06
-3.83887e-08
4.9738e-06
2.61636e-07
4.97878e-06
3.68575e-08
4.97624e-06
2.63091e-09
4.95958e-06
-1.80967e-07
4.96033e-06
-9.57547e-08
4.96077e-06
9.00816e-08
4.95789e-06
1.64243e-08
4.96735e-06
8.41865e-08
4.96844e-06
1.33544e-07
4.9634e-06
3.00991e-08
4.96438e-06
3.15515e-08
4.95721e-06
5.23491e-08
4.94913e-06
2.87438e-08
4.94774e-06
4.41263e-08
4.94547e-06
7.46897e-08
4.94217e-06
8.56885e-08
9.508e-08
4.94297e-06
5.20903e-06
3.20206e-08
5.19871e-06
-1.74194e-07
5.2012e-06
-4.08781e-08
5.21152e-06
2.51319e-07
5.2158e-06
3.25751e-08
5.21444e-06
3.99343e-09
5.19676e-06
-1.63289e-07
5.19783e-06
-9.68204e-08
5.19895e-06
8.89615e-08
5.19486e-06
2.05054e-08
5.20421e-06
7.48387e-08
5.20557e-06
1.32189e-07
5.19902e-06
3.66453e-08
5.20002e-06
3.05513e-08
5.19444e-06
5.7927e-08
5.18596e-06
3.72277e-08
5.18428e-06
4.58083e-08
5.18308e-06
7.589e-08
5.18034e-06
8.84277e-08
9.50164e-08
5.1804e-06
5.45823e-06
2.89818e-08
5.44705e-06
-1.63021e-07
5.45053e-06
-4.43488e-08
5.4609e-06
2.40944e-07
5.46403e-06
2.94413e-08
5.46398e-06
4.04751e-09
5.44556e-06
-1.44872e-07
5.44634e-06
-9.75941e-08
5.44858e-06
8.67151e-08
5.44323e-06
2.58606e-08
5.45206e-06
6.6004e-08
5.454e-06
1.30252e-07
5.44627e-06
4.43791e-08
5.44684e-06
2.99797e-08
5.443e-06
6.17689e-08
5.43443e-06
4.57909e-08
5.43223e-06
4.80144e-08
5.43192e-06
7.6193e-08
5.42986e-06
9.04875e-08
9.53582e-08
5.42952e-06
5.71931e-06
2.56292e-08
5.70737e-06
-1.51085e-07
5.71156e-06
-4.85364e-08
5.72251e-06
2.29994e-07
5.72409e-06
2.78664e-08
5.7253e-06
2.83386e-09
5.7066e-06
-1.26175e-07
5.70639e-06
-9.7381e-08
5.71006e-06
8.3046e-08
5.70361e-06
3.23097e-08
5.71142e-06
5.81895e-08
5.71428e-06
1.27394e-07
5.70583e-06
5.28306e-08
5.70551e-06
3.02989e-08
5.70334e-06
6.39435e-08
5.69509e-06
5.40374e-08
5.69218e-06
5.09294e-08
5.69257e-06
7.57967e-08
5.69125e-06
9.18048e-08
9.58553e-08
5.69076e-06
5.99283e-06
2.19874e-08
5.98028e-06
-1.38529e-07
5.98485e-06
-5.31048e-08
5.99688e-06
2.17962e-07
5.99661e-06
2.81345e-08
5.99886e-06
5.83735e-10
5.98048e-06
-1.07791e-07
5.97862e-06
-9.55233e-08
5.98371e-06
7.79542e-08
5.97662e-06
3.94003e-08
5.98285e-06
5.19595e-08
5.98684e-06
1.23407e-07
5.97827e-06
6.14005e-08
5.97676e-06
3.18049e-08
5.97599e-06
6.47146e-08
5.96847e-06
6.15576e-08
5.96475e-06
5.46541e-08
5.96559e-06
7.49532e-08
5.9651e-06
9.22961e-08
9.63803e-08
5.96457e-06
6.27937e-06
1.81008e-08
6.26639e-06
-1.25548e-07
6.27095e-06
-5.76609e-08
6.28443e-06
2.04478e-07
6.28229e-06
3.02833e-08
6.28518e-06
-2.31224e-09
6.26775e-06
-9.03609e-08
6.26372e-06
-9.14952e-08
6.26996e-06
7.17197e-08
6.26282e-06
4.65343e-08
6.26699e-06
4.77894e-08
6.27211e-06
1.18286e-07
6.26408e-06
6.94396e-08
6.26132e-06
3.45564e-08
6.26155e-06
6.44842e-08
6.25509e-06
6.80182e-08
6.25062e-06
5.9125e-08
6.25155e-06
7.40232e-08
6.25199e-06
9.18546e-08
9.68275e-08
6.25155e-06
6.57954e-06
1.40316e-08
6.56636e-06
-1.12372e-07
6.57049e-06
-6.179e-08
6.5856e-06
1.89364e-07
6.58187e-06
3.40161e-08
6.58487e-06
-5.31343e-09
6.56895e-06
-7.44335e-08
6.56255e-06
-8.51026e-08
6.56932e-06
6.49562e-08
6.56281e-06
5.30415e-08
6.56483e-06
4.57677e-08
6.57072e-06
1.12393e-07
6.56373e-06
7.64314e-08
6.5599e-06
3.83869e-08
6.56067e-06
6.37175e-08
6.55551e-06
7.31797e-08
6.55052e-06
6.41133e-08
6.55111e-06
7.34312e-08
6.5525e-06
9.04645e-08
9.69986e-08
6.55233e-06
6.89396e-06
9.86137e-09
6.88085e-06
-9.92577e-08
6.88412e-06
-6.50601e-08
6.90092e-06
1.72556e-07
6.89613e-06
3.88093e-08
6.89866e-06
-7.84234e-09
6.88457e-06
-6.03427e-08
6.876e-06
-7.65345e-08
6.88257e-06
5.83885e-08
6.87728e-06
5.83292e-08
6.87748e-06
4.55695e-08
6.88347e-06
1.06404e-07
6.87777e-06
8.21285e-08
6.87314e-06
4.30174e-08
6.87405e-06
6.28074e-08
6.87029e-06
7.69437e-08
6.86512e-06
6.92856e-08
6.86504e-06
7.35071e-08
6.86717e-06
8.83323e-08
9.65852e-08
6.86758e-06
7.22331e-06
5.69014e-09
7.21052e-06
-8.64734e-08
7.21253e-06
-6.70669e-08
7.23097e-06
1.54115e-07
7.22586e-06
4.3919e-08
7.2273e-06
-9.27629e-09
7.21518e-06
-4.82295e-08
7.20488e-06
-6.62349e-08
7.21058e-06
5.26888e-08
7.2068e-06
6.2107e-08
7.20571e-06
4.66598e-08
7.21126e-06
1.00856e-07
7.2068e-06
8.65965e-08
7.20168e-06
4.8131e-08
7.20247e-06
6.2014e-08
7.20003e-06
7.93871e-08
7.19508e-06
7.42385e-08
7.1942e-06
7.43893e-08
7.19664e-06
8.58922e-08
9.5298e-08
7.19792e-06
7.56828e-06
1.63407e-09
7.55609e-06
-7.42862e-08
7.55648e-06
-6.74507e-08
7.57639e-06
1.34207e-07
7.5717e-06
4.86046e-08
7.57154e-06
-9.11353e-09
7.56139e-06
-3.80835e-08
7.54994e-06
-5.47817e-08
7.5543e-06
4.83277e-08
7.55192e-06
6.44892e-08
7.55016e-06
4.84178e-08
7.55499e-06
9.60202e-08
7.5515e-06
9.00886e-08
7.5462e-06
5.34386e-08
7.54668e-06
6.15279e-08
7.54544e-06
8.06316e-08
7.54104e-06
7.86382e-08
7.53945e-06
7.59749e-08
7.54169e-06
8.36502e-08
9.30839e-08
7.54391e-06
7.92962e-06
-2.17587e-09
7.91832e-06
-6.2982e-08
7.91679e-06
-6.59219e-08
7.93785e-06
1.13147e-07
7.93415e-06
5.22993e-08
7.93215e-06
-7.11354e-09
7.92381e-06
-2.974e-08
7.91198e-06
-4.29529e-08
7.91461e-06
4.5699e-08
7.91326e-06
6.58359e-08
7.91139e-06
5.02933e-08
7.91548e-06
9.19322e-08
7.91276e-06
9.28051e-08
7.90736e-06
5.88376e-08
7.90746e-06
6.1431e-08
7.90725e-06
8.08404e-08
7.90362e-06
8.22644e-08
7.90159e-06
7.80071e-08
7.90329e-06
8.19468e-08
9.02205e-08
7.90616e-06
8.30811e-06
-5.60207e-09
8.29799e-06
-5.28648e-08
8.29445e-06
-6.23785e-08
8.31605e-06
9.1541e-08
8.31386e-06
5.449e-08
8.30992e-06
-3.1746e-09
8.30311e-06
-2.29233e-08
8.2917e-06
-3.15479e-08
8.29244e-06
4.49591e-08
8.29157e-06
6.67065e-08
8.28994e-06
5.19279e-08
8.29353e-06
8.83338e-08
8.29143e-06
9.49146e-08
8.28597e-06
6.42925e-08
8.2856e-06
6.17976e-08
8.28625e-06
8.01973e-08
8.28356e-06
8.49525e-08
8.28134e-06
8.02263e-08
8.28241e-06
8.08728e-08
8.7163e-08
8.28547e-06
8.70456e-06
-8.50466e-09
8.69596e-06
-4.42558e-08
8.69044e-06
-5.68608e-08
8.71179e-06
7.01838e-08
8.71163e-06
5.46505e-08
8.70569e-06
2.77192e-09
8.70002e-06
-1.72513e-08
8.68973e-06
-2.12611e-08
8.68878e-06
4.59122e-08
8.68774e-06
6.77442e-08
8.68646e-06
5.32062e-08
8.68987e-06
8.49195e-08
8.68836e-06
9.64285e-08
8.68294e-06
6.97118e-08
8.68197e-06
6.27707e-08
8.68322e-06
7.89437e-08
8.68163e-06
8.65479e-08
8.67944e-06
8.24102e-08
8.67996e-06
8.03578e-08
8.42713e-08
8.68285e-06
9.11987e-06
-1.07513e-08
9.11305e-06
-3.74401e-08
9.10574e-06
-4.95503e-08
9.12602e-06
4.99054e-08
9.12826e-06
5.24077e-08
9.1205e-06
1.05286e-08
9.11528e-06
-1.20269e-08
9.10668e-06
-1.26645e-08
9.10452e-06
4.80713e-08
9.10285e-06
6.94158e-08
9.10173e-06
5.43322e-08
9.10519e-06
8.14571e-08
9.10442e-06
9.71979e-08
9.09917e-06
7.49615e-08
9.09751e-06
6.4429e-08
9.09904e-06
7.74139e-08
9.09861e-06
8.69785e-08
9.09672e-06
8.43039e-08
9.09676e-06
8.03159e-08
8.17204e-08
9.09931e-06
9.55494e-06
-1.22306e-08
9.55015e-06
-3.26546e-08
9.54133e-06
-4.07222e-08
9.55962e-06
3.16151e-08
9.56451e-06
4.75147e-08
9.55556e-06
1.94818e-08
9.54981e-06
-6.28348e-09
9.54319e-06
-6.04113e-09
9.5406e-06
5.06583e-08
9.53811e-06
7.19034e-08
9.53665e-06
5.58008e-08
9.54024e-06
7.78585e-08
9.54041e-06
9.70301e-08
9.53555e-06
7.98271e-08
9.53323e-06
6.67413e-08
9.53469e-06
7.5962e-08
9.5353e-06
8.63619e-08
9.53402e-06
8.559e-08
9.53372e-06
8.06169e-08
7.96101e-08
9.53583e-06
1.00108e-05
-1.28739e-08
1.00081e-05
-3.00004e-08
9.99822e-06
-3.08217e-08
1.00135e-05
1.6333e-08
1.00211e-05
3.98708e-08
1.0012e-05
2.86409e-08
1.00048e-05
8.7921e-10
9.99996e-06
-1.17393e-09
9.99786e-06
5.27565e-08
9.99471e-06
7.50577e-08
9.99237e-06
5.81428e-08
9.99589e-06
7.43316e-08
9.99715e-06
9.57731e-08
9.99294e-06
8.40327e-08
9.99015e-06
6.95388e-08
9.99126e-06
7.48515e-08
9.99261e-06
8.50092e-08
9.99216e-06
8.60407e-08
9.99177e-06
8.10042e-08
7.80311e-08
9.99335e-06
1.04884e-05
-1.26714e-08
1.04878e-05
-2.93686e-08
1.04775e-05
-2.05073e-08
1.04888e-05
4.99662e-09
1.0499e-05
2.96768e-08
1.04909e-05
3.6771e-08
1.04817e-05
1.00371e-08
1.04778e-05
2.74621e-09
1.04771e-05
5.35146e-08
1.04737e-05
7.84184e-08
1.04702e-05
6.16218e-08
1.04732e-05
7.13855e-08
1.04755e-05
9.34593e-08
1.04723e-05
8.72394e-08
1.04692e-05
7.26018e-08
1.04698e-05
7.42199e-08
1.04716e-05
8.32408e-08
1.0472e-05
8.56623e-08
1.04719e-05
8.11286e-08
7.69685e-08
1.04729e-05
1.0989e-05
-1.1691e-08
1.099e-05
-3.03633e-08
1.09802e-05
-1.0671e-08
1.0987e-05
-1.84061e-09
1.09991e-05
1.76509e-08
1.09931e-05
4.26964e-08
1.0982e-05
2.11903e-08
1.09779e-05
6.87667e-09
1.09788e-05
5.2555e-08
1.0976e-05
8.1185e-08
1.09715e-05
6.61505e-08
1.09733e-05
6.96466e-08
1.09764e-05
9.03618e-08
1.09745e-05
8.91387e-08
1.09714e-05
7.56646e-08
1.09715e-05
7.407e-08
1.09735e-05
8.13178e-08
1.09745e-05
8.46458e-08
1.09749e-05
8.07478e-08
7.61865e-08
1.09756e-05
1.15137e-05
-1.00669e-08
1.15158e-05
-3.23964e-08
1.15073e-05
-2.20256e-09
1.15097e-05
-4.2151e-09
1.15221e-05
5.19532e-09
1.15196e-05
4.52084e-08
1.15071e-05
3.37491e-08
1.15014e-05
1.25154e-08
1.15039e-05
5.01256e-08
1.15026e-05
8.2435e-08
1.14974e-05
7.13055e-08
1.14976e-05
6.95216e-08
1.1501e-05
8.69744e-08
1.15003e-05
8.97521e-08
1.14977e-05
7.82631e-08
1.14974e-05
7.44047e-08
1.14993e-05
7.93944e-08
1.15008e-05
8.31869e-08
1.15017e-05
7.98742e-08
7.53032e-08
1.15026e-05
1.20637e-05
-7.97661e-09
1.20662e-05
-3.48444e-08
1.20597e-05
4.27509e-09
1.20582e-05
-2.73158e-09
1.20695e-05
-6.03718e-09
1.2071e-05
4.3689e-08
1.20583e-05
4.6455e-08
1.20503e-05
2.05103e-08
1.20532e-05
4.71932e-08
1.2054e-05
8.15912e-08
1.20491e-05
7.62983e-08
1.20476e-05
7.09768e-08
1.20506e-05
8.40088e-08
1.20511e-05
8.92243e-08
1.20493e-05
8.00987e-08
1.20487e-05
7.50059e-08
1.20504e-05
7.76375e-08
1.20522e-05
8.13808e-08
1.20534e-05
7.87016e-08
7.40593e-08
1.20546e-05
1.26402e-05
-5.63022e-09
1.26425e-05
-3.71032e-08
1.26383e-05
8.46387e-09
1.2634e-05
1.63187e-09
1.26424e-05
-1.44468e-08
1.26478e-05
3.82965e-08
1.26366e-05
5.76443e-08
1.26261e-05
3.09546e-08
1.26281e-05
4.51935e-08
1.26311e-05
7.86335e-08
1.26274e-05
7.99995e-08
1.26246e-05
7.37416e-08
1.26266e-05
8.2033e-08
1.26279e-05
8.78691e-08
1.26269e-05
8.11254e-08
1.26264e-05
7.55539e-08
1.26279e-05
7.61334e-08
1.263e-05
7.92797e-08
1.26313e-05
7.73668e-08
7.24952e-08
1.26329e-05
1.32446e-05
-3.25237e-09
1.32461e-05
-3.86965e-08
1.32442e-05
1.03997e-08
1.32381e-05
7.78366e-09
1.32425e-05
-1.89142e-08
1.32509e-05
2.9961e-08
1.32428e-05
6.57386e-08
1.32306e-05
4.31627e-08
1.32303e-05
4.54762e-08
1.32348e-05
7.41379e-08
1.32331e-05
8.16319e-08
1.32298e-05
7.70923e-08
1.32306e-05
8.11825e-08
1.32322e-05
8.63233e-08
1.3232e-05
8.12837e-08
1.32317e-05
7.58696e-08
1.3233e-05
7.4846e-08
1.32353e-05
7.69686e-08
1.32368e-05
7.58335e-08
7.08662e-08
1.32385e-05
1.3878e-05
-1.0623e-09
1.38785e-05
-3.92041e-08
1.38786e-05
1.02601e-08
1.38717e-05
1.47242e-08
1.38717e-05
-1.89509e-08
1.38814e-05
2.02897e-08
1.38775e-05
6.96658e-08
1.38648e-05
5.58113e-08
1.38618e-05
4.85262e-08
1.38665e-05
6.942e-08
1.38671e-05
8.0994e-08
1.38643e-05
7.98731e-08
1.38641e-05
8.1465e-08
1.38654e-05
8.49901e-08
1.38659e-05
8.08214e-08
1.38659e-05
7.57713e-08
1.38671e-05
7.37102e-08
1.38695e-05
7.45691e-08
1.38714e-05
7.39499e-08
6.93522e-08
1.38729e-05
1.45419e-05
7.52026e-10
1.45408e-05
-3.81972e-08
1.45428e-05
8.32447e-09
1.45359e-05
2.1601e-08
1.45317e-05
-1.47975e-08
1.45407e-05
1.13246e-08
1.45414e-05
6.89534e-08
1.453e-05
6.72009e-08
1.45245e-05
5.40758e-08
1.45279e-05
6.60131e-08
1.45305e-05
7.83892e-08
1.45291e-05
8.12368e-08
1.45282e-05
8.23685e-08
1.45291e-05
8.40816e-08
1.45298e-05
8.01273e-08
1.45304e-05
7.51767e-08
1.45315e-05
7.26153e-08
1.45338e-05
7.22553e-08
1.45362e-05
7.16225e-08
6.7872e-08
1.45376e-05
1.52376e-05
2.05899e-09
1.52348e-05
-3.54654e-08
1.52379e-05
5.22102e-09
1.52321e-05
2.74665e-08
1.52245e-05
-7.22682e-09
1.52307e-05
5.16677e-09
1.52357e-05
6.39352e-08
1.52272e-05
7.56732e-08
1.52199e-05
6.13779e-08
1.52213e-05
6.46708e-08
1.52248e-05
7.48851e-08
1.52251e-05
8.08988e-08
1.52245e-05
8.29705e-08
1.52249e-05
8.37067e-08
1.52256e-05
7.93852e-08
1.52265e-05
7.42678e-08
1.52278e-05
7.13246e-08
1.52299e-05
7.01788e-08
1.52325e-05
6.89631e-08
6.61564e-08
1.52343e-05
1.59666e-05
2.82882e-09
1.59622e-05
-3.10927e-08
1.59656e-05
1.81655e-09
1.59616e-05
3.14934e-08
1.59518e-05
2.4915e-09
1.59541e-05
2.88542e-09
1.59618e-05
5.63061e-08
1.59572e-05
8.02424e-08
1.59494e-05
6.91368e-08
1.59486e-05
6.54755e-08
1.59518e-05
7.17575e-08
1.59536e-05
7.90444e-08
1.59539e-05
8.26312e-08
1.59542e-05
8.34937e-08
1.59548e-05
7.87924e-08
1.59558e-05
7.32502e-08
1.59574e-05
6.97445e-08
1.59593e-05
6.82643e-08
1.5962e-05
6.62605e-08
6.39955e-08
1.59641e-05
1.67303e-05
3.12101e-09
1.67247e-05
-2.54668e-08
1.67275e-05
-9.70269e-10
1.67256e-05
3.34055e-08
1.67153e-05
1.2713e-08
1.67136e-05
4.61157e-09
1.67216e-05
4.82689e-08
1.67211e-05
8.08221e-08
1.67143e-05
7.58647e-08
1.67117e-05
6.81245e-08
1.67137e-05
6.97789e-08
1.67164e-05
7.63237e-08
1.67178e-05
8.12716e-08
1.67185e-05
8.27555e-08
1.67189e-05
7.83933e-08
1.67199e-05
7.22593e-08
1.67216e-05
6.79923e-08
1.67236e-05
6.62581e-08
1.67261e-05
6.37683e-08
6.14198e-08
1.67287e-05
1.75304e-05
3.05054e-09
1.75242e-05
-1.9281e-08
1.75257e-05
-2.45311e-09
1.75256e-05
3.35701e-08
1.75162e-05
2.21066e-08
1.75111e-05
9.65822e-09
1.75177e-05
4.17066e-08
1.75204e-05
7.80654e-08
1.75158e-05
8.05376e-08
1.7512e-05
7.18427e-08
1.75126e-05
6.92056e-08
1.75154e-05
7.35829e-08
1.75176e-05
7.90477e-08
1.75191e-05
8.12711e-08
1.75198e-05
7.76926e-08
1.75205e-05
7.15216e-08
1.75223e-05
6.61844e-08
1.75245e-05
6.40682e-08
1.75268e-05
6.14296e-08
5.86954e-08
1.75296e-05
1.83686e-05
2.7778e-09
1.83624e-05
-1.30979e-08
1.83623e-05
-2.36447e-09
1.83634e-05
3.25178e-08
1.83556e-05
2.99141e-08
1.83485e-05
1.67965e-08
1.83523e-05
3.78318e-08
1.83572e-05
7.31756e-08
1.8355e-05
8.27671e-08
1.83512e-05
7.56157e-08
1.83505e-05
6.98947e-08
1.83526e-05
7.15245e-08
1.83554e-05
7.62183e-08
1.83575e-05
7.92045e-08
1.83588e-05
7.63687e-08
1.83596e-05
7.07385e-08
1.83611e-05
6.46388e-08
1.83635e-05
6.16635e-08
1.83658e-05
5.91287e-08
5.6025e-08
1.83685e-05
1.92467e-05
2.47411e-09
1.92409e-05
-7.32461e-09
1.92393e-05
-7.27282e-10
1.92409e-05
3.08677e-08
1.9235e-05
3.58264e-08
1.92271e-05
2.46808e-08
1.92281e-05
3.68772e-08
1.92335e-05