/*--------------------------------*- C++ -*----------------------------------*\
| =========                 |                                                 |
| \\      /  F ield         | OpenFOAM: The Open Source CFD Toolbox           |
|  \\    /   O peration     | Version:  3.0.1                                 |
|   \\  /    A nd           | Web:      www.OpenFOAM.org                      |
|    \\/     M anipulation  |                                                 |
\*---------------------------------------------------------------------------*/
FoamFile
{
    version     2.0;
    format      ascii;
    class       volVectorField;
    location    "1.1";
    object      U;
}
// * * * * * * * * * * * * * * * * * * * * * * * * * * * * * * * * * * * * * //

dimensions      [0 1 -1 0 0 0 0];

internalField   nonuniform List<vector> 
9600
(
(0.851482 0.000212215 0)
(1.13495 -0.00284297 0)
(0.869178 0.000384573 0)
(1.18967 0.00622265 0)
(0.825578 -0.00187594 0)
(1.10462 0.00196504 0)
(0.893357 -0.00824384 0)
(1.11975 -0.00201086 0)
(0.875855 0.0023774 0)
(1.1255 -0.00070953 0)
(0.864985 0.00640411 0)
(1.13091 0.00684395 0)
(0.873714 -0.00118092 0)
(1.10864 -0.000184253 0)
(0.890508 -0.00544249 0)
(1.10894 -0.000921141 0)
(0.885255 -0.00608812 0)
(1.11772 -0.00228991 0)
(0.872181 -0.00321224 0)
(1.12627 -0.000391692 0)
(0.862036 0.000231078 0)
(1.12337 -0.00279318 0)
(0.87975 -0.000286749 0)
(1.17576 0.00671037 0)
(0.848576 -0.00118609 0)
(1.0901 0.00141042 0)
(0.913147 -0.00871368 0)
(1.10592 -0.00160329 0)
(0.89862 0.00213393 0)
(1.1047 -0.000202462 0)
(0.893418 0.00607568 0)
(1.09843 0.00694155 0)
(0.918686 -0.000890897 0)
(1.0666 -0.000376838 0)
(0.943723 -0.00550024 0)
(1.05363 -0.000816161 0)
(0.957734 -0.00609826 0)
(1.03834 -0.00231962 0)
(0.974028 -0.00254606 0)
(1.00934 -0.000125497 0)
(0.88203 0.000264584 0)
(1.10215 -0.00280586 0)
(0.900856 -0.000819075 0)
(1.14823 0.00719506 0)
(0.885396 -0.000622953 0)
(1.06511 0.000977059 0)
(0.940948 -0.00895483 0)
(1.07943 -0.00134842 0)
(0.934939 0.00202656 0)
(1.07112 -2.79928e-05 0)
(0.936408 0.00596667 0)
(1.05667 0.00669568 0)
(0.96608 -0.000454541 0)
(1.02627 -0.000805036 0)
(0.982327 -0.00514063 0)
(1.01494 -0.0013045 0)
(0.990594 -0.00546025 0)
(1.0037 -0.00304708 0)
(0.995443 -0.00148167 0)
(0.992305 -0.000421547 0)
(0.908127 0.00031888 0)
(1.07541 -0.00285204 0)
(0.928015 -0.00122717 0)
(1.11221 0.0074084 0)
(0.924614 -3.57357e-05 0)
(1.03788 0.000576496 0)
(0.96681 -0.00913798 0)
(1.04907 -0.00129648 0)
(0.967945 0.00208579 0)
(1.03926 2.20014e-05 0)
(0.971203 0.00608437 0)
(1.02711 0.00631505 0)
(0.992684 -2.01274e-05 0)
(1.00703 -0.00100112 0)
(0.9949 -0.00491407 0)
(1.00157 -0.00150175 0)
(0.995564 -0.00518318 0)
(0.996015 -0.00324208 0)
(0.993741 -0.00101184 0)
(0.991706 0.000274107 0)
(0.935591 0.000394313 0)
(1.04878 -0.00293216 0)
(0.954947 -0.001547 0)
(1.07513 0.00747309 0)
(0.956853 0.000535521 0)
(1.01641 0.000265117 0)
(0.984589 -0.00926207 0)
(1.02407 -0.00135692 0)
(0.988376 0.00220296 0)
(1.01824 2.77638e-05 0)
(0.989791 0.00617653 0)
(1.01258 0.00604149 0)
(1.00218 0.000299874 0)
(1.00136 -0.00101925 0)
(0.996727 -0.00469123 0)
(0.997334 -0.00167061 0)
(0.994966 -0.00485252 0)
(0.993018 -0.00335372 0)
(0.991661 -0.000567167 0)
(0.989681 0.000677132 0)
(0.95992 0.000476927 0)
(1.02714 -0.00303992 0)
(0.976615 -0.00175483 0)
(1.04366 0.0074859 0)
(0.978132 0.000993091 0)
(1.00409 4.92993e-05 0)
(0.993973 -0.00931736 0)
(1.00801 -0.00145609 0)
(0.997163 0.00228343 0)
(1.00795 4.02589e-05 0)
(0.996649 0.0061903 0)
(1.00678 0.00587309 0)
(1.00424 0.000512527 0)
(1.00011 -0.000953597 0)
(0.996731 -0.00444922 0)
(0.995322 -0.00180751 0)
(0.994003 -0.00451145 0)
(0.991051 -0.00342367 0)
(0.989951 -0.000223364 0)
(0.98792 0.00112254 0)
(0.978333 0.000548895 0)
(1.0127 -0.00314918 0)
(0.990913 -0.00185716 0)
(1.02112 0.00748289 0)
(0.989616 0.00129741 0)
(0.999552 -7.97296e-05 0)
(0.997988 -0.0093038 0)
(0.99942 -0.00155689 0)
(0.99937 0.00230152 0)
(1.00396 5.69343e-05 0)
(0.998344 0.00616458 0)
(1.00458 0.00574061 0)
(1.00433 0.000681915 0)
(0.999914 -0.000874482 0)
(0.996902 -0.00418187 0)
(0.994568 -0.00190301 0)
(0.993294 -0.0041988 0)
(0.990091 -0.00341309 0)
(0.98859 5.16319e-05 0)
(0.986829 0.001606 0)
(0.990287 0.000598734 0)
(1.00485 -0.0032406 0)
(0.998445 -0.00187966 0)
(1.00733 0.00748388 0)
(0.994841 0.00145698 0)
(0.999404 -0.000159735 0)
(0.999637 -0.00922563 0)
(0.995373 -0.00164686 0)
(0.999092 0.00227325 0)
(1.00242 6.32908e-05 0)
(0.998575 0.00612334 0)
(1.00369 0.00561507 0)
(1.0042 0.000831967 0)
(1.0001 -0.000804378 0)
(0.997362 -0.00389982 0)
(0.994704 -0.00196541 0)
(0.993142 -0.00389981 0)
(0.989914 -0.00331406 0)
(0.98792 0.00027365 0)
(0.986296 0.0021108 0)
(0.996924 0.000624048 0)
(1.00146 -0.00330693 0)
(1.00118 -0.00184629 0)
(1.00011 0.00748862 0)
(0.997121 0.00150645 0)
(1.00081 -0.000222777 0)
(1.00051 -0.00908837 0)
(0.993621 -0.00172104 0)
(0.998274 0.00222369 0)
(1.00146 5.16936e-05 0)
(0.998469 0.00607126 0)
(1.00324 0.00548891 0)
(1.00413 0.000963312 0)
(1.00046 -0.000738271 0)
(0.997998 -0.00362223 0)
(0.9953 -0.00199388 0)
(0.993488 -0.00361368 0)
(0.99027 -0.0031331 0)
(0.98792 0.000466522 0)
(0.986285 0.00261804 0)
(1.00003 0.000629932 0)
(1.00034 -0.00334752 0)
(1.00118 -0.00177819 0)
(0.997036 0.00748129 0)
(0.998459 0.00148954 0)
(1.00225 -0.000281168 0)
(1.00111 -0.00890307 0)
(0.992949 -0.00177993 0)
(0.997513 0.00217289 0)
(1.00057 2.4587e-05 0)
(0.998155 0.00600571 0)
(1.00287 0.00535574 0)
(1.00405 0.00107578 0)
(1.00084 -0.000672533 0)
(0.99866 -0.003365 0)
(0.996035 -0.00198455 0)
(0.994083 -0.0033457 0)
(0.990923 -0.00288154 0)
(0.988379 0.000637193 0)
(0.986702 0.00310936 0)
(1.00121 0.000624338 0)
(1.00012 -0.00336445 0)
(0.999952 -0.00169329 0)
(0.996241 0.007446 0)
(0.999657 0.00144018 0)
(1.00326 -0.000335338 0)
(1.00148 -0.00868299 0)
(0.992786 -0.0018259 0)
(0.996916 0.00213273 0)
(0.999765 -1.0716e-05 0)
(0.997672 0.00592458 0)
(1.00246 0.00521178 0)
(1.00392 0.00116568 0)
(1.00113 -0.000607781 0)
(0.999224 -0.00313546 0)
(0.996712 -0.00193531 0)
(0.994706 -0.00310012 0)
(0.991658 -0.00257739 0)
(0.989068 0.000797846 0)
(0.987392 0.00356741 0)
(1.00152 0.000613672 0)
(1.00013 -0.00336017 0)
(0.998396 -0.00160458 0)
(0.996519 0.00737347 0)
(1.00085 0.00138067 0)
(1.00382 -0.000381748 0)
(1.00164 -0.00843897 0)
(0.992868 -0.00186262 0)
(0.996483 0.00210711 0)
(0.999156 -4.74834e-05 0)
(0.997138 0.00582924 0)
(1.00202 0.0050579 0)
(1.00375 0.00123179 0)
(1.00128 -0.000538825 0)
(0.999627 -0.00293366 0)
(0.99723 -0.00185168 0)
(0.995225 -0.00287785 0)
(0.992332 -0.0022405 0)
(0.989804 0.000965325 0)
(0.988195 0.00396877 0)
(1.00151 0.000601583 0)
(1.00016 -0.0033375 0)
(0.996999 -0.00151936 0)
(0.997157 0.00726129 0)
(1.00192 0.00132542 0)
(1.00405 -0.000417098 0)
(1.00167 -0.00817886 0)
(0.993062 -0.0018939 0)
(0.9962 0.00209506 0)
(0.998771 -8.21496e-05 0)
(0.99668 0.0057219 0)
(1.00159 0.00489984 0)
(1.00356 0.00126945 0)
(1.00131 -0.000456247 0)
(0.999865 -0.0027607 0)
(0.997569 -0.00174006 0)
(0.995591 -0.00267321 0)
(0.992878 -0.00189107 0)
(0.990476 0.00115556 0)
(0.988986 0.00429101 0)
(1.00142 0.000589653 0)
(1.00017 -0.00330013 0)
(0.995966 -0.00143993 0)
(0.997782 0.00711309 0)
(1.00277 0.00127977 0)
(1.00409 -0.000440943 0)
(1.00161 -0.00790765 0)
(0.993299 -0.00192269 0)
(0.996043 0.00209339 0)
(0.998578 -0.000112668 0)
(0.996367 0.00560478 0)
(1.00121 0.00474233 0)
(1.00337 0.00127713 0)
(1.00125 -0.000354448 0)
(0.99997 -0.00261536 0)
(0.997758 -0.00160533 0)
(0.995814 -0.00247401 0)
(0.993295 -0.00154928 0)
(0.991046 0.00138136 0)
(0.989699 0.004533 0)
(1.00134 0.000578323 0)
(1.00016 -0.00325201 0)
(0.995327 -0.00136535 0)
(0.998247 0.00693597 0)
(1.00332 0.00124241 0)
(1.00403 -0.000455486 0)
(1.00154 -0.00762859 0)
(0.993541 -0.00195018 0)
(0.995978 0.00209805 0)
(0.998521 -0.000136629 0)
(0.996205 0.00547781 0)
(1.00089 0.0045903 0)
(1.00318 0.00125797 0)
(1.00114 -0.000233708 0)
(0.999988 -0.00249004 0)
(0.99785 -0.00145585 0)
(0.995936 -0.00226146 0)
(0.993612 -0.00123488 0)
(0.99152 0.00164078 0)
(0.990316 0.00471557 0)
(1.00128 0.000567444 0)
(1.00014 -0.0031966 0)
(0.995018 -0.00129329 0)
(0.998539 0.0067376 0)
(1.00362 0.00121231 0)
(1.00392 -0.000463419 0)
(1.00148 -0.00734419 0)
(0.993775 -0.00197649 0)
(0.995974 0.00210541 0)
(0.998545 -0.000154082 0)
(0.996165 0.00533831 0)
(1.00063 0.0044518 0)
(1.003 0.00121239 0)
(1.001 -9.63856e-05 0)
(0.999961 -0.00237508 0)
(0.99789 -0.00130488 0)
(0.996001 -0.00201818 0)
(0.993871 -0.000955421 0)
(0.991928 0.00191621 0)
(0.990852 0.00486123 0)
(1.00124 0.000556852 0)
(1.00013 -0.00313689 0)
(0.994939 -0.00122181 0)
(0.998701 0.00652517 0)
(1.00372 0.0011873 0)
(1.00378 -0.000467502 0)
(1.00143 -0.00705643 0)
(0.993998 -0.00199958 0)
(0.996002 0.00211185 0)
(0.998609 -0.000163324 0)
(0.996207 0.00518452 0)
(1.00042 0.00433202 0)
(1.00282 0.00114366 0)
(1.00086 5.21419e-05 0)
(0.999916 -0.00226232 0)
(0.997912 -0.00116215 0)
(0.996044 -0.00173955 0)
(0.994102 -0.000706173 0)
(0.992298 0.00218876 0)
(0.991327 0.00498912 0)
(1.0012 0.000546585 0)
(1.00011 -0.00307526 0)
(0.994997 -0.0011498 0)
(0.998787 0.00630373 0)
(1.00369 0.00116617 0)
(1.00362 -0.000469815 0)
(1.00141 -0.00676645 0)
(0.994217 -0.00202006 0)
(0.996047 0.00211518 0)
(0.998691 -0.000163527 0)
(0.996296 0.00501542 0)
(1.00025 0.00423126 0)
(1.00266 0.00105682 0)
(1.00073 0.000208095 0)
(0.999867 -0.00213832 0)
(0.997936 -0.00103652 0)
(0.996082 -0.00142749 0)
(0.994327 -0.00047708 0)
(0.992654 0.0024413 0)
(0.991762 0.00511606 0)
(1.00117 0.000536485 0)
(1.0001 -0.00301261 0)
(0.995126 -0.00107701 0)
(0.998836 0.00607727 0)
(1.00361 0.00114663 0)
(1.00345 -0.000470142 0)
(1.00139 -0.00647648 0)
(0.994434 -0.00203493 0)
(0.9961 0.00211176 0)
(0.998779 -0.000152524 0)
(0.996411 0.00483009 0)
(1.00009 0.00414736 0)
(1.00251 0.000958378 0)
(1.0006 0.000365861 0)
(0.999819 -0.00198835 0)
(0.997972 -0.000934905 0)
(0.996126 -0.00108699 0)
(0.994554 -0.000258731 0)
(0.99301 0.00265444 0)
(0.992171 0.00524816 0)
(1.00114 0.000526404 0)
(1.00008 -0.00294955 0)
(0.995286 -0.00100311 0)
(0.998871 0.0058474 0)
(1.00349 0.00112764 0)
(1.00328 -0.000468551 0)
(1.00137 -0.00618974 0)
(0.994652 -0.00204059 0)
(0.996157 0.00209996 0)
(0.998871 -0.000130598 0)
(0.996541 0.00462954 0)
(0.999947 0.00407763 0)
(1.00237 0.000858575 0)
(1.00048 0.0005153 0)
(0.999771 -0.0018075 0)
(0.998024 -0.000854397 0)
(0.99618 -0.000731315 0)
(0.994783 -4.17073e-05 0)
(0.993373 0.00281843 0)
(0.992563 0.00538547 0)
(1.00111 0.000516529 0)
(1.00006 -0.00288686 0)
(0.995458 -0.000928317 0)
(0.998901 0.00561503 0)
(1.00337 0.0011087 0)
(1.00311 -0.00046386 0)
(1.00135 -0.00590851 0)
(0.994873 -0.00203701 0)
(0.996215 0.00207972 0)
(0.998964 -9.84649e-05 0)
(0.996679 0.00441602 0)
(0.999805 0.00401922 0)
(1.00224 0.000758149 0)
(1.00037 0.000644436 0)
(0.99972 -0.00159642 0)
(0.998092 -0.000787734 0)
(0.996245 -0.000377372 0)
(0.995012 0.00019342 0)
(0.993747 0.00293417 0)
(0.992944 0.00551948 0)
(1.00108 0.000506731 0)
(1.00005 -0.00282407 0)
(0.995633 -0.000854703 0)
(0.998931 0.00538379 0)
(1.00324 0.00108518 0)
(1.00293 -0.000452511 0)
(1.00133 -0.00563473 0)
(0.995095 -0.00202171 0)
(0.996274 0.00205093 0)
(0.999056 -5.81306e-05 0)
(0.996826 0.00419454 0)
(0.999664 0.00396353 0)
(1.00211 0.000666985 0)
(1.00028 0.000749498 0)
(0.999665 -0.00135715 0)
(0.998175 -0.000727236 0)
(0.996323 -3.74909e-05 0)
(0.995238 0.000458939 0)
(0.99413 0.00300804 0)
(0.993321 0.00563424 0)
(1.00105 0.000496748 0)
(1.00004 -0.002761 0)
(0.995809 -0.000782328 0)
(0.998962 0.00515394 0)
(1.00312 0.00105986 0)
(1.00276 -0.00043417 0)
(1.0013 -0.00537006 0)
(0.99532 -0.00199571 0)
(0.996334 0.00201404 0)
(0.999147 -9.89743e-06 0)
(0.996979 0.00396914 0)
(0.999526 0.00390551 0)
(1.00198 0.000596599 0)
(1.0002 0.00083195 0)
(0.999607 -0.00109522 0)
(0.998272 -0.000661648 0)
(0.996419 0.000280103 0)
(0.995458 0.000749166 0)
(0.994519 0.00305318 0)
(0.993698 0.00571738 0)
(1.00102 0.000486495 0)
(1.00003 -0.00269736 0)
(0.995986 -0.000712174 0)
(0.998994 0.0049271 0)
(1.003 0.00103218 0)
(1.0026 -0.000407305 0)
(1.00127 -0.00511552 0)
(0.995547 -0.00196055 0)
(0.996395 0.00197135 0)
(0.999235 4.16247e-05 0)
(0.997139 0.00374754 0)
(0.99939 0.00384257 0)
(1.00186 0.000542068 0)
(1.00013 0.000893962 0)
(0.999546 -0.000815673 0)
(0.998378 -0.000583852 0)
(0.996534 0.000571701 0)
(0.995671 0.00105583 0)
(0.99491 0.00307988 0)
(0.99408 0.005759 0)
(1.00098 0.000475618 0)
(1.00002 -0.00263202 0)
(0.996163 -0.00064669 0)
(0.999027 0.00470618 0)
(1.00287 0.000995721 0)
(1.00243 -0.000369811 0)
(1.00124 -0.00486911 0)
(0.995776 -0.00192012 0)
(0.996459 0.0019277 0)
(0.999319 8.89978e-05 0)
(0.997304 0.00353384 0)
(0.999258 0.00377619 0)
(1.00173 0.000505615 0)
(1.00008 0.000941266 0)
(0.999483 -0.000520923 0)
(0.998492 -0.000492523 0)
(0.996671 0.000836446 0)
(0.995875 0.00137527 0)
(0.995299 0.00309492 0)
(0.994475 0.00574761 0)
(1.00095 0.000464362 0)
(1.00002 -0.00256586 0)
(0.996341 -0.000586551 0)
(0.999061 0.00449275 0)
(1.00275 0.000951332 0)
(1.00227 -0.000322924 0)
(1.0012 -0.0046299 0)
(0.996006 -0.00187431 0)
(0.996527 0.00188558 0)
(0.9994 0.000128588 0)
(0.997473 0.00332966 0)
(0.999131 0.00370721 0)
(1.00161 0.000484854 0)
(1.00005 0.000974955 0)
(0.999421 -0.000211768 0)
(0.998609 -0.000382335 0)
(0.996832 0.00106879 0)
(0.996071 0.00170587 0)
(0.995678 0.00311201 0)
(0.994886 0.00567086 0)
(1.00092 0.000451899 0)
(1.00002 -0.00249674 0)
(0.996521 -0.000535671 0)
(0.999097 0.00428968 0)
(1.00263 0.000898471 0)
(1.00211 -0.000268081 0)
(1.00117 -0.00439737 0)
(0.996237 -0.00182435 0)
(0.9966 0.00185025 0)
(0.999476 0.000158001 0)
(0.997646 0.00313241 0)
(0.999009 0.00363534 0)
(1.00149 0.000477895 0)
(1.00004 0.000997501 0)
(0.999361 0.000107691 0)
(0.998727 -0.000245819 0)
(0.997019 0.00126141 0)
(0.99626 0.00204368 0)
(0.99604 0.00315638 0)
(0.995318 0.0055276 0)
(1.00088 0.000437997 0)
(1.00002 -0.00242414 0)
(0.996703 -0.00049225 0)
(0.999132 0.00409748 0)
(1.00251 0.000836704 0)
(1.00196 -0.000205441 0)
(1.00113 -0.00416788 0)
(0.996471 -0.00178036 0)
(0.996678 0.00182421 0)
(0.999548 0.000181736 0)
(0.997822 0.00293528 0)
(0.998893 0.00357013 0)
(1.00138 0.000487292 0)
(1.00004 0.0010103 0)
(0.999308 0.000429107 0)
(0.99884 -7.45755e-05 0)
(0.997231 0.00140584 0)
(0.99645 0.00236783 0)
(0.996374 0.00324742 0)
(0.995766 0.00533676 0)
(1.00085 0.000422754 0)
(1.00002 -0.00234736 0)
(0.996887 -0.000459415 0)
(0.999168 0.00391905 0)
(1.00239 0.000770268 0)
(1.00181 -0.000138856 0)
(1.00109 -0.00393586 0)
(0.996707 -0.00174726 0)
(0.99676 0.00181258 0)
(0.999617 0.000202014 0)
(0.998003 0.00273423 0)
(0.998785 0.00352298 0)
(1.00126 0.000509073 0)
(1.00007 0.00101464 0)
(0.999265 0.000754547 0)
(0.998943 0.000125412 0)
(0.997467 0.00150358 0)
(0.996648 0.00264947 0)
(0.996675 0.00338697 0)
(0.996217 0.00513136 0)
(1.00081 0.00040526 0)
(1.00002 -0.00226454 0)
(0.997072 -0.000440158 0)
(0.999205 0.00375421 0)
(1.00228 0.000697972 0)
(1.00165 -7.39261e-05 0)
(1.00105 -0.00369501 0)
(0.996946 -0.00172931 0)
(0.996849 0.00180921 0)
(0.99968 0.00022753 0)
(0.998191 0.00252378 0)
(0.998685 0.00349252 0)
(1.00115 0.000553026 0)
(1.00012 0.00100548 0)
(0.999235 0.00107242 0)
(0.999032 0.000351462 0)
(0.99772 0.00157295 0)
(0.996864 0.00287717 0)
(0.996946 0.00356562 0)
(0.996656 0.00495288 0)
(1.00078 0.000385418 0)
(1.00003 -0.00217408 0)
(0.997259 -0.000436577 0)
(0.999242 0.0036037 0)
(1.00217 0.000623197 0)
(1.00151 -1.43155e-05 0)
(1.00101 -0.00344221 0)
(0.997188 -0.00172552 0)
(0.996944 0.00180779 0)
(0.999737 0.000261047 0)
(0.998387 0.00230507 0)
(0.998597 0.00346425 0)
(1.00103 0.000630538 0)
(1.0002 0.000980929 0)
(0.999224 0.00136936 0)
(0.999104 0.000605204 0)
(0.997985 0.00162473 0)
(0.997104 0.00304369 0)
(0.997192 0.00375458 0)
(0.997065 0.00483101 0)
(1.00074 0.000362831 0)
(1.00003 -0.00207447 0)
(0.997448 -0.000448129 0)
(0.99928 0.00346315 0)
(1.00206 0.000549116 0)
(1.00137 3.10054e-05 0)
(1.00096 -0.00316731 0)
(0.997432 -0.00173829 0)
(0.997047 0.00180526 0)
(0.999786 0.000312745 0)
(0.99859 0.00207578 0)
(0.998525 0.00343725 0)
(1.0009 0.000749928 0)
(1.00029 0.000948768 0)
(0.999238 0.00163077 0)
(0.99916 0.000887639 0)
(0.998252 0.0016784 0)
(0.997371 0.00315715 0)
(0.997426 0.00392956 0)
(0.997434 0.0047777 0)
(1.00071 0.000336592 0)
(1.00004 -0.00196617 0)
(0.997638 -0.000471708 0)
(0.999318 0.00332868 0)
(1.00196 0.0004815 0)
(1.00124 5.77854e-05 0)
(1.0009 -0.00287202 0)
(0.997677 -0.00175875 0)
(0.997161 0.00179158 0)
(0.999826 0.000394561 0)
(0.998801 0.00184531 0)
(0.998475 0.00340772 0)
(1.00077 0.000916967 0)
(1.0004 0.000915009 0)
(0.999282 0.00183539 0)
(0.999204 0.00119423 0)
(0.998515 0.00174735 0)
(0.997663 0.00322716 0)
(0.997658 0.00407566 0)
(0.997761 0.00478218 0)
(1.00067 0.000307823 0)
(1.00004 -0.0018481 0)
(0.997829 -0.000509137 0)
(0.999357 0.00319883 0)
(1.00185 0.000430017 0)
(1.00111 6.73387e-05 0)
(1.00084 -0.00256528 0)
(0.997919 -0.00177761 0)
(0.997289 0.00175652 0)
(0.999856 0.00050171 0)
(0.999017 0.00162556 0)
(0.998451 0.003362 0)
(1.00064 0.00112494 0)
(1.00052 0.000889833 0)
(0.999361 0.0019798 0)
(0.999241 0.00150498 0)
(0.998766 0.00182727 0)
(0.997978 0.00325494 0)
(0.9979 0.00418316 0)
(0.998051 0.00481364 0)
(1.00064 0.000275604 0)
(1.00004 -0.00171963 0)
(0.99802 -0.000556662 0)
(0.999398 0.00306215 0)
(1.00175 0.000397465 0)
(1.001 5.66228e-05 0)
(1.00077 -0.00224855 0)
(0.998156 -0.00178768 0)
(0.997432 0.00169135 0)
(0.999877 0.000634478 0)
(0.999235 0.0014259 0)
(0.998459 0.00329291 0)
(1.0005 0.00136045 0)
(1.00064 0.000887554 0)
(0.999475 0.00206866 0)
(0.999278 0.00180525 0)
(0.998998 0.00192356 0)
(0.998311 0.00325043 0)
(0.998158 0.00425977 0)
(0.998318 0.00484926 0)
(1.00061 0.000240512 0)
(1.00004 -0.00158482 0)
(0.99821 -0.000610511 0)
(0.999442 0.00291314 0)
(1.00164 0.00038907 0)
(1.0009 2.5188e-05 0)
(1.0007 -0.00193443 0)
(0.998383 -0.00176826 0)
(0.997593 0.00159503 0)
(0.999893 0.000786178 0)
(0.99945 0.00126201 0)
(0.9985 0.0031951 0)
(1.00036 0.00160283 0)
(1.00076 0.000923293 0)
(0.999624 0.00211547 0)
(0.99932 0.00208903 0)
(0.999208 0.00204647 0)
(0.998656 0.00321768 0)
(0.998437 0.00430529 0)
(0.998569 0.00487821 0)
(1.00058 0.000202125 0)
(1.00004 -0.0014427 0)
(0.998396 -0.000665866 0)
(0.99949 0.00274758 0)
(1.00154 0.000408457 0)
(1.00081 -1.78302e-05 0)
(1.00063 -0.00163422 0)
(0.998598 -0.00171111 0)
(0.99777 0.00147104 0)
(0.999907 0.000942137 0)
(0.999659 0.0011422 0)
(0.998576 0.00306729 0)
(1.00023 0.00183438 0)
(1.00085 0.000999181 0)
(0.999803 0.00212615 0)
(0.999376 0.00234157 0)
(0.999389 0.00220212 0)
(0.999005 0.00316679 0)
(0.998739 0.0043114 0)
(0.998813 0.00490657 0)
(1.00055 0.000161576 0)
(1.00003 -0.00129676 0)
(0.998577 -0.00071711 0)
(0.999544 0.00256004 0)
(1.00143 0.000453844 0)
(1.00072 -6.57476e-05 0)
(1.00057 -0.00135676 0)
(0.998797 -0.00161224 0)
(0.997962 0.00133187 0)
(0.999924 0.00108985 0)
(0.999856 0.00108124 0)
(0.998683 0.00292141 0)
(1.00011 0.00204138 0)
(1.00094 0.00110688 0)
(1.00001 0.00211225 0)
(0.999454 0.00255111 0)
(0.999544 0.00238786 0)
(0.999348 0.00311527 0)
(0.999069 0.00426493 0)
(0.999054 0.00493486 0)
(1.00052 0.000120139 0)
(1.00002 -0.00115255 0)
(0.99875 -0.000760875 0)
(0.999603 0.00234963 0)
(1.00132 0.000515711 0)
(1.00065 -0.000111118 0)
(1.0005 -0.00110698 0)
(0.998979 -0.00147151 0)
(0.998164 0.00119462 0)
(0.999949 0.00121177 0)
(1.00004 0.00107174 0)
(0.998816 0.00277321 0)
(1.00001 0.00221259 0)
(1.001 0.00123674 0)
(1.00023 0.00208945 0)
(0.999561 0.00271763 0)
(0.999673 0.0025971 0)
(0.999668 0.0030878 0)
(0.999426 0.00416366 0)
(0.999306 0.00494223 0)
(1.00049 7.72718e-05 0)
(1 -0.0010088 0)
(0.998913 -0.000793597 0)
(0.999668 0.00211547 0)
(1.00122 0.00058814 0)
(1.00057 -0.000141787 0)
(1.00045 -0.000891958 0)
(0.999143 -0.00129522 0)
(0.998373 0.0010751 0)
(0.999983 0.00130034 0)
(1.00021 0.00109156 0)
(0.998969 0.00263293 0)
(0.999926 0.00234746 0)
(1.00105 0.00137763 0)
(1.00047 0.00206007 0)
(0.999705 0.00283355 0)
(0.999787 0.00281117 0)
(0.999953 0.00310426 0)
(0.999802 0.00402849 0)
(0.999585 0.00490024 0)
(1.00046 3.58785e-05 0)
(0.999986 -0.000871305 0)
(0.999064 -0.000808162 0)
(0.99974 0.00186246 0)
(1.00112 0.000659811 0)
(1.00051 -0.000151533 0)
(1.0004 -0.000712731 0)
(0.999293 -0.00109322 0)
(0.998582 0.000977142 0)
(1.00003 0.00135765 0)
(1.00037 0.00112959 0)
(0.999138 0.00251292 0)
(0.999868 0.00245605 0)
(1.00108 0.00152589 0)
(1.00071 0.00203113 0)
(0.999887 0.00289995 0)
(0.999897 0.00301133 0)
(1.0002 0.0031682 0)
(1.00018 0.0038936 0)
(0.999901 0.00479107 0)
(1.00043 -4.45313e-06 0)
(0.999965 -0.000742169 0)
(0.9992 -0.000801697 0)
(0.999817 0.00159464 0)
(1.00102 0.000720201 0)
(1.00044 -0.000133166 0)
(1.00036 -0.000563226 0)
(0.999429 -0.000878191 0)
(0.998786 0.000912776 0)
(1.00008 0.00138956 0)
(1.00052 0.00116783 0)
(0.99932 0.0024112 0)
(0.999833 0.00254764 0)
(1.0011 0.00168343 0)
(1.00095 0.0020097 0)
(1.00011 0.00292277 0)
(1.00002 0.00318208 0)
(1.0004 0.00326896 0)
(1.00053 0.00379606 0)
(1.00025 0.00463175 0)
(1.0004 -4.17935e-05 0)
(0.999941 -0.000624231 0)
(0.999319 -0.000770591 0)
(0.999898 0.00131379 0)
(1.00094 0.000763598 0)
(1.00037 -8.59376e-05 0)
(1.00032 -0.000441207 0)
(0.999555 -0.000666913 0)
(0.998982 0.00089249 0)
(1.00014 0.00141078 0)
(1.00066 0.00119743 0)
(0.999515 0.00231708 0)
(0.999821 0.0026243 0)
(1.0011 0.00185141 0)
(1.00118 0.00200068 0)
(1.00036 0.00290473 0)
(1.00016 0.00330999 0)
(1.00056 0.00338174 0)
(1.00084 0.00374622 0)
(1.00062 0.00446095 0)
(1.00038 -7.43001e-05 0)
(0.999917 -0.000522231 0)
(0.999418 -0.00071476 0)
(0.99998 0.00103336 0)
(1.00086 0.000780579 0)
(1.00029 -8.36801e-06 0)
(1.0003 -0.000338647 0)
(0.999673 -0.00046787 0)
(0.999169 0.00090713 0)
(1.0002 0.00143156 0)
(1.0008 0.00121854 0)
(0.99972 0.00222557 0)
(0.999835 0.00268413 0)
(1.00108 0.00202557 0)
(1.00139 0.00201408 0)
(1.00064 0.00285273 0)
(1.00032 0.00339256 0)
(1.00071 0.00349054 0)
(1.00111 0.00372928 0)
(1.00098 0.00430818 0)
(1.00035 -0.000100648 0)
(0.999893 -0.000437861 0)
(0.999498 -0.000635682 0)
(1.00006 0.000761881 0)
(1.0008 0.000766251 0)
(1.00022 9.9179e-05 0)
(1.00027 -0.000253374 0)
(0.999787 -0.000295499 0)
(0.999346 0.000948449 0)
(1.00026 0.00146665 0)
(1.00092 0.00123747 0)
(0.999934 0.00212728 0)
(0.999877 0.00272284 0)
(1.00105 0.00220207 0)
(1.00157 0.00205997 0)
(1.00093 0.00278074 0)
(1.00052 0.00342321 0)
(1.00085 0.00358602 0)
(1.00134 0.00372976 0)
(1.00132 0.00418002 0)
(1.00033 -0.000119937 0)
(0.999872 -0.000374256 0)
(0.999559 -0.000537027 0)
(1.00013 0.000509505 0)
(1.00076 0.00071384 0)
(1.00014 0.00023317 0)
(1.00024 -0.000163016 0)
(0.9999 -0.00016072 0)
(0.999517 0.0010007 0)
(1.00031 0.00152462 0)
(1.00102 0.00126556 0)
(1.00015 0.00201814 0)
(0.999951 0.00272907 0)
(1.00102 0.0023709 0)
(1.00171 0.00213672 0)
(1.00123 0.00271058 0)
(1.00076 0.00340095 0)
(1.00099 0.0036551 0)
(1.00153 0.00374284 0)
(1.00162 0.00406827 0)
(1.0003 -0.000130605 0)
(0.999853 -0.000334081 0)
(0.999602 -0.000423817 0)
(1.0002 0.000291508 0)
(1.00074 0.000619661 0)
(1.00007 0.000381172 0)
(1.00021 -5.2504e-05 0)
(1.00001 -5.82197e-05 0)
(0.999687 0.00104821 0)
(1.00035 0.00160073 0)
(1.0011 0.00131372 0)
(1.00037 0.0019088 0)
(1.00006 0.00269795 0)
(1.001 0.00251965 0)
(1.00182 0.00224194 0)
(1.00151 0.0026625 0)
(1.00102 0.00334053 0)
(1.00114 0.00368486 0)
(1.00169 0.0037649 0)
(1.00189 0.00397175 0)
(1.00027 -0.000132645 0)
(0.99984 -0.000318292 0)
(0.999629 -0.000301064 0)
(1.00025 0.000120401 0)
(1.00074 0.000487775 0)
(1.00002 0.000522169 0)
(1.00016 8.39057e-05 0)
(1.00011 1.22623e-05 0)
(0.999859 0.00107165 0)
(1.00039 0.00168432 0)
(1.00116 0.00139484 0)
(1.00058 0.00181691 0)
(1.0002 0.00262642 0)
(1.00099 0.00263133 0)
(1.00189 0.00236276 0)
(1.00176 0.00264546 0)
(1.00129 0.00326551 0)
(1.00132 0.00367237 0)
(1.00182 0.00378312 0)
(1.00212 0.00390507 0)
(1.00025 -0.000125772 0)
(0.999833 -0.000323183 0)
(0.999647 -0.00017976 0)
(1.00028 3.59684e-06 0)
(1.00077 0.00032815 0)
(0.999976 0.000635039 0)
(1.0001 0.000262711 0)
(1.0002 7.59061e-05 0)
(1.00004 0.00105212 0)
(1.00044 0.00175438 0)
(1.00119 0.00150685 0)
(1.00077 0.00176104 0)
(1.00037 0.00252642 0)
(1.00101 0.00269752 0)
(1.00194 0.00247714 0)
(1.00197 0.00265565 0)
(1.00157 0.00319554 0)
(1.00151 0.00362791 0)
(1.00195 0.00377618 0)
(1.00229 0.00386793 0)
(1.00022 -0.0001115 0)
(0.999833 -0.000343711 0)
(0.999658 -6.83494e-05 0)
(1.00029 -5.41319e-05 0)
(1.00081 0.000155241 0)
(0.999963 0.000701011 0)
(1.00003 0.000471859 0)
(1.00026 0.000159529 0)
(1.00022 0.000997597 0)
(1.00051 0.0017965 0)
(1.0012 0.0016403 0)
(1.00092 0.00174852 0)
(1.00055 0.00242132 0)
(1.00105 0.00271464 0)
(1.00198 0.00257059 0)
(1.00216 0.00267921 0)
(1.00183 0.00313517 0)
(1.00171 0.00357044 0)
(1.00208 0.00373839 0)
(1.00243 0.00383959 0)
(1.0002 -9.183e-05 0)
(0.999841 -0.000370943 0)
(0.99967 2.31182e-05 0)
(1.00028 -5.29247e-05 0)
(1.00085 -1.98237e-05 0)
(0.999985 0.000700782 0)
(0.999957 0.000695943 0)
(1.00029 0.000284538 0)
(1.0004 0.000929933 0)
(1.0006 0.00178556 0)
(1.0012 0.00177259 0)
(1.00104 0.00178634 0)
(1.00073 0.00233219 0)
(1.00113 0.00269035 0)
(1.00201 0.0026329 0)
(1.00231 0.00270304 0)
(1.00207 0.00307684 0)
(1.00192 0.00350747 0)
(1.00222 0.00368211 0)
(1.00255 0.00379037 0)
(1.00018 -6.80378e-05 0)
(0.999856 -0.000398552 0)
(0.999688 8.72703e-05 0)
(1.00026 -1.09081e-05 0)
(1.0009 -0.000166446 0)
(1.00005 0.000630114 0)
(0.999901 0.000902993 0)
(1.00029 0.000468879 0)
(1.00056 0.000878613 0)
(1.00071 0.00171857 0)
(1.00121 0.00187351 0)
(1.00113 0.00186929 0)
(1.00089 0.00227393 0)
(1.00122 0.00264641 0)
(1.00206 0.00265988 0)
(1.00244 0.00271968 0)
(1.0023 0.00301691 0)
(1.00212 0.00343315 0)
(1.00235 0.00362428 0)
(1.00266 0.00371346 0)
(1.00015 -4.32085e-05 0)
(0.999875 -0.000421608 0)
(0.999715 0.000122852 0)
(1.00021 5.99484e-05 0)
(1.00093 -0.000258255 0)
(1.00014 0.000513309 0)
(0.999875 0.0010638 0)
(1.00026 0.000692249 0)
(1.00069 0.000866129 0)
(1.00085 0.0016152 0)
(1.00125 0.0019264 0)
(1.0012 0.00196604 0)
(1.00103 0.00226028 0)
(1.00132 0.00260027 0)
(1.00211 0.00265785 0)
(1.00255 0.0027219 0)
(1.00251 0.00295798 0)
(1.00233 0.00334129 0)
(1.00248 0.00356686 0)
(1.00277 0.00362844 0)
(1.00013 -1.96885e-05 0)
(0.999898 -0.000432777 0)
(0.999754 0.000128551 0)
(1.00016 0.000151752 0)
(1.00095 -0.000289275 0)
(1.00027 0.000368808 0)
(0.99989 0.00116282 0)
(1.00021 0.000930505 0)
(1.00078 0.000912384 0)
(1.00099 0.00150336 0)
(1.00131 0.00191307 0)
(1.00126 0.00204481 0)
(1.00115 0.0022832 0)
(1.00141 0.00257144 0)
(1.00216 0.00264382 0)
(1.00265 0.00270942 0)
(1.0027 0.00290179 0)
(1.00255 0.00323343 0)
(1.00262 0.00349184 0)
(1.00286 0.00354873 0)
(1.00012 5.58435e-07 0)
(0.999921 -0.000431421 0)
(0.999806 0.000110803 0)
(1.00012 0.000245402 0)
(1.00095 -0.000248829 0)
(1.00042 0.000220879 0)
(0.999955 0.00117345 0)
(1.00016 0.00115805 0)
(1.00082 0.00101996 0)
(1.00112 0.00142218 0)
(1.00141 0.00184502 0)
(1.00133 0.00208745 0)
(1.00125 0.00231221 0)
(1.00149 0.00256313 0)
(1.00221 0.00262925 0)
(1.00273 0.00268565 0)
(1.00286 0.00284666 0)
(1.00275 0.00312288 0)
(1.00276 0.00339138 0)
(1.00294 0.00347845 0)
(1.0001 1.58456e-05 0)
(0.999944 -0.00040969 0)
(0.99987 7.71748e-05 0)
(1.00008 0.000328936 0)
(1.00093 -0.00015506 0)
(1.00056 0.000104834 0)
(1.00007 0.00110143 0)
(1.00013 0.00134092 0)
(1.00082 0.00116518 0)
(1.00122 0.001381 0)
(1.00152 0.00176086 0)
(1.00143 0.0020777 0)
(1.00135 0.00233324 0)
(1.00157 0.00256451 0)
(1.00225 0.00262359 0)
(1.00281 0.00265867 0)
(1.00301 0.00278973 0)
(1.00295 0.00301642 0)
(1.00292 0.00326472 0)
(1.00301 0.00339982 0)
(1.00009 2.62998e-05 0)
(0.999964 -0.000367936 0)
(0.999943 3.6153e-05 0)
(1.00005 0.000393503 0)
(1.00089 -3.29997e-05 0)
(1.00069 4.32063e-05 0)
(1.00023 0.000982235 0)
(1.00013 0.00145026 0)
(1.0008 0.0013273 0)
(1.00129 0.00138924 0)
(1.00164 0.00168408 0)
(1.00155 0.002021 0)
(1.00146 0.00232698 0)
(1.00164 0.00256339 0)
(1.00229 0.00262343 0)
(1.00286 0.00263609 0)
(1.00313 0.00273378 0)
(1.00312 0.00292145 0)
(1.00309 0.00312601 0)
(1.0031 0.00329986 0)
(1.00008 3.15664e-05 0)
(0.999978 -0.000310362 0)
(1.00002 -8.84827e-07 0)
(1.00005 0.000430469 0)
(1.00084 0.000111667 0)
(1.00079 4.13404e-05 0)
(1.00041 0.000844966 0)
(1.00019 0.00147953 0)
(1.00077 0.00147367 0)
(1.00132 0.00145036 0)
(1.00174 0.00162995 0)
(1.00168 0.00195006 0)
(1.00159 0.00227978 0)
(1.00172 0.0025458 0)
(1.00231 0.00261826 0)
(1.00291 0.00261708 0)
(1.00323 0.00267693 0)
(1.00326 0.00283751 0)
(1.00326 0.00299078 0)
(1.0032 0.00317126 0)
(1.00007 3.17431e-05 0)
(0.999987 -0.000242549 0)
(1.0001 -2.51655e-05 0)
(1.00006 0.000436592 0)
(1.00078 0.000258354 0)
(1.00086 0.00010313 0)
(1.0006 0.000720809 0)
(1.00029 0.00143941 0)
(1.00076 0.00158059 0)
(1.00132 0.00153546 0)
(1.00181 0.00161423 0)
(1.00181 0.00188103 0)
(1.00173 0.00220622 0)
(1.00181 0.00249903 0)
(1.00234 0.00260249 0)
(1.00293 0.00260066 0)
(1.00331 0.00262058 0)
(1.00338 0.00275718 0)
(1.0034 0.00287207 0)
(1.00332 0.0030199 0)
(1.00007 2.95525e-05 0)
(0.999991 -0.000173451 0)
(1.00017 -3.33406e-05 0)
(1.0001 0.000422809 0)
(1.00074 0.000381753 0)
(1.0009 0.000208727 0)
(1.00078 0.000638469 0)
(1.00042 0.00135369 0)
(1.00077 0.00164222 0)
(1.0013 0.00161861 0)
(1.00185 0.00163488 0)
(1.00192 0.00182527 0)
(1.00188 0.00212636 0)
(1.00193 0.00242407 0)
(1.00238 0.0025622 0)
(1.00294 0.00257904 0)
(1.00337 0.00256717 0)
(1.00348 0.00267223 0)
(1.00351 0.00277317 0)
(1.00344 0.00286987 0)
(1.00007 2.59391e-05 0)
(0.999991 -0.000107362 0)
(1.00023 -2.31581e-05 0)
(1.00014 0.000402792 0)
(1.00071 0.000476795 0)
(1.00092 0.000328933 0)
(1.00093 0.000606299 0)
(1.00058 0.00125179 0)
(1.00081 0.00164859 0)
(1.00128 0.00169138 0)
(1.00187 0.00167609 0)
(1.00202 0.00179459 0)
(1.00202 0.00204902 0)
(1.00205 0.0023345 0)
(1.00244 0.00249358 0)
(1.00295 0.00254012 0)
(1.0034 0.00251659 0)
(1.00357 0.00257948 0)