/*--------------------------------*- C++ -*----------------------------------*\
| =========                 |                                                 |
| \\      /  F ield         | OpenFOAM: The Open Source CFD Toolbox           |
|  \\    /   O peration     | Version:  3.0.1                                 |
|   \\  /    A nd           | Web:      www.OpenFOAM.org                      |
|    \\/     M anipulation  |                                                 |
\*---------------------------------------------------------------------------*/
FoamFile
{
    version     2.0;
    format      ascii;
    class       volScalarField;
    location    "2.2";
    object      p;
}
// * * * * * * * * * * * * * * * * * * * * * * * * * * * * * * * * * * * * * //

dimensions      [0 2 -2 0 0 0 0];

internalField   nonuniform List<scalar> 
9600
(
1.61112e-11
-0.000180089
-0.000220734
0.000311004
-0.00015082
-0.00149982
3.78223e-06
0.00130448
0.000615251
0.00114593
0.00115486
-0.000188542
-0.000313268
0.00111333
0.00164928
0.00265057
0.00334486
0.00552501
0.00787603
0.0124354
1.56194e-06
-0.000179599
-0.000219373
0.000291672
-0.000151411
-0.00148395
6.55649e-06
0.00128916
0.000619496
0.00111511
0.00115455
-0.000209968
-0.000312635
0.00111925
0.00165189
0.00264644
0.00336126
0.00550561
0.00790541
0.0121114
2.88012e-06
-0.000179242
-0.000219613
0.000274794
-0.00014896
-0.00146779
6.16413e-06
0.00127031
0.000621334
0.00107927
0.00115474
-0.000215277
-0.00030993
0.00112795
0.00165494
0.00264163
0.00337837
0.00547602
0.00791169
0.0116485
3.94325e-06
-0.00017971
-0.000219809
0.000261136
-0.000147513
-0.00145297
7.12205e-06
0.00124682
0.000619751
0.00104305
0.00115196
-0.000207269
-0.000309067
0.00113688
0.00165824
0.00263294
0.00339522
0.00543711
0.00788384
0.0112136
4.72388e-06
-0.000181007
-0.00021907
0.00024969
-0.000147871
-0.00143796
1.05282e-05
0.00121762
0.00061806
0.00100479
0.00114851
-0.000189759
-0.000308
0.00114518
0.00166272
0.00262085
0.00341141
0.00538978
0.00783277
0.0108025
5.22851e-06
-0.000183003
-0.000217292
0.000240462
-0.00014961
-0.0014217
1.63945e-05
0.00118442
0.000617366
0.00096508
0.00114717
-0.000165379
-0.00030474
0.0011524
0.0016693
0.0026057
0.00342568
0.00533624
0.00775984
0.0104062
5.48716e-06
-0.000185556
-0.000214449
0.000233134
-0.000152133
-0.00140359
2.42343e-05
0.00114928
0.000618039
0.000924712
0.00114817
-0.000136239
-0.000298802
0.00115864
0.00167779
0.00258811
0.00343671
0.00527851
0.00766352
0.0100236
5.56149e-06
-0.000188482
-0.00021062
0.000227062
-0.000154764
-0.00138343
3.34737e-05
0.00111291
0.00062032
0.000883839
0.0011509
-0.000104074
-0.00029025
0.00116412
0.00168734
0.00256941
0.00344275
0.00521713
0.00754374
0.00965414
5.53358e-06
-0.000191639
-0.000206015
0.000221651
-0.000156951
-0.00136138
4.35254e-05
0.00107607
0.000624158
0.000842434
0.00115473
-7.00106e-05
-0.000279336
0.00116893
0.00169702
0.00255087
0.00344158
0.00515212
0.00740259
0.00929492
5.47245e-06
-0.000194968
-0.000200839
0.000216482
-0.000158433
-0.00133786
5.39377e-05
0.00103925
0.000629233
0.000800537
0.00115911
-3.48311e-05
-0.000266749
0.0011734
0.00170594
0.00253299
0.00343151
0.00508348
0.00724258
0.00894079
5.42016e-06
-0.000198459
-0.000195228
0.000211256
-0.000159167
-0.00131334
6.43582e-05
0.00100275
0.000635076
0.000758289
0.00116352
8.06724e-07
-0.000253386
0.00117815
0.00171292
0.00251602
0.0034121
0.00500998
0.00706573
0.00858721
5.40075e-06
-0.000202114
-0.000189254
0.000205768
-0.000159208
-0.00128814
7.45179e-05
0.000966612
0.000641149
0.000715932
0.00116742
3.65202e-05
-0.000240094
0.00118384
0.00171672
0.00250017
0.00338359
0.0049292
0.00687461
0.00823159
5.43139e-06
-0.000205943
-0.000182951
0.000199887
-0.00015864
-0.00126243
8.42192e-05
0.000930767
0.000646919
0.000673802
0.00117021
7.22689e-05
-0.000227751
0.00119107
0.00171663
0.00248499
0.00334613
0.00483843
0.00667356
0.00787308
5.5278e-06
-0.000209964
-0.000176334
0.00019353
-0.000157533
-0.00123629
9.32882e-05
0.000895169
0.000651925
0.000632313
0.0011713
0.000108239
-0.000217207
0.00120022
0.00171248
0.00246939
0.00330037
0.0047344
0.00646653
0.00751277
5.70622e-06
-0.000214199
-0.00016941
0.000186648
-0.00015594
-0.00120975
0.00010157
0.000859808
0.000655788
0.000591939
0.00117016
0.000144693
-0.000209144
0.0012116
0.00170414
0.00245176
0.00324868
0.00461376
0.00625436
0.00715278
5.98518e-06
-0.000218679
-0.000162189
0.000179222
-0.000153911
-0.00118276
0.000108894
0.000824704
0.000658177
0.000553187
0.00116621
0.000181983
-0.000204096
0.00122524
0.00169189
0.00242942
0.0031942
0.00447499
0.00603663
0.00679661
6.38561e-06
-0.000223435
-0.000154683
0.000171254
-0.000151492
-0.00115526
0.000115051
0.000790019
0.000658779
0.000516533
0.00115892
0.000220517
-0.000202447
0.00124064
0.00167693
0.00239903
0.00313902
0.00431863
0.00581166
0.00644834
6.93165e-06
-0.000228501
-0.00014691
0.000162766
-0.000148748
-0.00112713
0.000119811
0.000755986
0.000657241
0.000482409
0.00114786
0.000260538
-0.000204419
0.00125688
0.00166122
0.00235723
0.00308379
0.00414648
0.00557637
0.00611218
7.65236e-06
-0.000233908
-0.0001389
0.000153803
-0.000145771
-0.00109822
0.000122926
0.00072286
0.000653195
0.000451188
0.00113279
0.000301946
-0.000209865
0.0012723
0.00164704
0.00230141
0.00302759
0.0039623
0.00532749
0.00579067
8.57924e-06
-0.000239684
-0.000130702
0.000144436
-0.000142667
-0.00106837
0.00012409
0.000690926
0.000646351
0.000423125
0.00111342
0.000344438
-0.000217973
0.00128463
0.00163638
0.00223038
0.00296825
0.00377124
0.00506149
0.00548608
9.74643e-06
-0.00024585
-0.00012237
0.000134763
-0.000139585
-0.00103737
0.000122963
0.000660448
0.000636435
0.00039832
0.00108968
0.000387376
-0.000227605
0.0012916
0.00163058
0.0021442
0.00290238
0.00357838
0.00477648
0.00519483
1.11912e-05
-0.000252418
-0.000114004
0.000124919
-0.000136731
-0.001005
0.000119257
0.000631575
0.000623262
0.000376767
0.00106207
0.000429621
-0.000237816
0.00129107
0.00162997
0.00204431
0.00282564
0.00338858
0.00447362
0.00491076
1.29446e-05
-0.000259382
-0.000105733
0.000115083
-0.000134344
-0.00097106
0.000112766
0.000604416
0.000606832
0.000358235
0.00103119
0.000469915
-0.000247733
0.00128131
0.00163418
0.00193308
0.00273364
0.00320576
0.00415643
0.00462587
1.50287e-05
-0.000266709
-9.76878e-05
0.000105487
-0.000132686
-0.000935444
0.000103305
0.000578986
0.000587256
0.00034204
0.00099788
0.000507139
-0.000256617
0.00126129
0.00164215
0.00181335
0.00262275
0.00303179
0.00382989
0.00433284
1.74599e-05
-0.000274331
-9.00801e-05
9.63907e-05
-0.000131989
-0.000898054
9.0789e-05
0.000555123
0.00056487
0.000327164
0.000963136
0.000540524
-0.000264056
0.00123025
0.00165198
0.00168816
0.00249052
0.00286678
0.00350044
0.00402612
2.02374e-05
-0.000282141
-8.31912e-05
8.80623e-05
-0.000132409
-0.000858905
7.53085e-05
0.000532405
0.000540351
0.000312632
0.000927622
0.000569478
-0.000270122
0.00118762
0.00166147
0.00156056
0.0023355
0.00270947
0.00317535
0.00370184
2.33355e-05
-0.000289977
-7.73278e-05
8.07468e-05
-0.000134067
-0.000818122
5.71092e-05
0.000510254
0.00051458
0.000297533
0.00089166
0.000593649
-0.000275359
0.0011331
0.00166859
0.00143374
0.0021571
0.0025572
0.00286273
0.00335726
2.67041e-05
-0.000297611
-7.27845e-05
7.46501e-05
-0.000137094
-0.000775854
3.66337e-05
0.000487783
0.000488443
0.000281006
0.000855342
0.000613239
-0.000280515
0.00106622
0.001671
0.00131147
0.00195606
0.00240489
0.00257099
0.00299293
3.02602e-05
-0.000304764
-6.98288e-05
6.98883e-05
-0.00014152
-0.000732461
1.46324e-05
0.000463879
0.000462695
0.000262634
0.000818283
0.000628628
-0.000286112
0.000986313
0.00166555
0.00119766
0.00173519
0.0022453
0.0023072
0.00261571
3.38774e-05
-0.000311097
-6.87064e-05
6.65149e-05
-0.000147256
-0.000688633
-7.82331e-06
0.000437774
0.000437793
0.00024227
0.000779479
0.000639908
-0.00029212
0.000893132
0.00164894
0.00109516
0.00149924
0.00207128
0.00207472
0.00223937
3.74049e-05
-0.000316268
-6.96192e-05
6.44224e-05
-0.000153983
-0.000645104
-2.97505e-05
0.000408926
0.00041371
0.00022004
0.000737948
0.000646874
-0.000298451
0.000787026
0.00161814
0.00100518
0.00125478
0.00187713
0.00187025
0.00188127
4.068e-05
-0.000319963
-7.26577e-05
6.32929e-05
-0.000161112
-0.00060257
-5.0532e-05
0.000376939
0.000390219
0.000196258
0.000692414
0.000648982
-0.000304579
0.000668746
0.00157041
0.000928034
0.00100891
0.00165894
0.00171217
0.0015583
4.35232e-05
-0.000321895
-7.77768e-05
6.26694e-05
-0.000168035
-0.000561656
-6.97867e-05
0.000342112
0.0003671
0.000171018
0.000641487
0.000645231
-0.000309797
0.000539692
0.00150341
0.000863201
0.000768055
0.00141422
0.00153793
0.00128213
4.57985e-05
-0.000321854
-8.48043e-05
6.19809e-05
-0.000174252
-0.000522874
-8.72848e-05
0.000304735
0.000343727
0.000144649
0.00058422
0.000633987
-0.000313477
0.000402178
0.00141534
0.000808319
0.000538113
0.00114674
0.0013573
0.00105141
4.74035e-05
-0.000319757
-9.32928e-05
6.05289e-05
-0.000179565
-0.000486294
-0.000103015
0.000264778
0.000319302
0.000117414
0.000519665
0.000613378
-0.00031492
0.000259453
0.00130529
0.000759802
0.000323869
0.000863116
0.00116101
0.000855169
4.82684e-05
-0.000315684
-0.000102549
5.778e-05
-0.000184167
-0.000451708
-0.00011694
0.000222344
0.000293202
8.91574e-05
0.000447269
0.000581627
-0.000313884
0.000115819
0.00117313
0.000713219
0.000128847
0.000568917
0.000946141
0.000680591
4.84389e-05
-0.000309943
-0.000111873
5.36749e-05
-0.00018887
-0.000419275
-0.000128793
0.000177407
0.000264514
5.98448e-05
0.00036742
0.000537186
-0.000310601
-2.39164e-05
0.00101966
0.000663343
-4.40792e-05
0.000269392
0.000712189
0.000515831
4.80224e-05
-0.000302918
-0.000120749
4.84799e-05
-0.000194503
-0.000389494
-0.000138266
0.00012975
0.000231567
2.97869e-05
0.000281818
0.000479303
-0.00030667
-0.000155635
0.000846921
0.000604102
-0.000193637
-2.94383e-05
0.000458699
0.000353374
4.71738e-05
-0.000294948
-0.00012889
4.27559e-05
-0.000201629
-0.000363594
-0.00014526
7.94536e-05
0.000192436
-3.05139e-07
0.00019381
0.000408554
-0.000303918
-0.000277244
0.000657899
0.000529117
-0.000320554
-0.00031652
0.000185014
0.000187388
4.61403e-05
-0.000286284
-0.000136396
3.74174e-05
-0.000210424
-0.000343569
-0.000150471
2.68876e-05
0.000146032
-3.04969e-05
0.000107158
0.000326669
-0.000304628
-0.000388686
0.000457012
0.000433441
-0.000428285
-0.000590282
-0.000108073
1.05103e-05
4.51373e-05
-0.000277044
-0.000143574
3.30963e-05
-0.000220467
-0.000331518
-0.000155808
-2.54598e-05
9.2083e-05
-6.19048e-05
2.4729e-05
0.000235822
-0.000318325
-0.000490736
0.00024949
0.000314943
-0.000522718
-0.00083933
-0.000415044
-0.000185644
4.4328e-05
-0.000267161
-0.000150874
2.99118e-05
-0.000230344
-0.000328988
-0.000164059
-7.62821e-05
3.10385e-05
-9.57141e-05
-5.16142e-05
0.00013861
-0.000343762
-0.000584693
3.95173e-05
0.000174073
-0.000607975
-0.00105922
-0.000726012
-0.00040738
4.38037e-05
-0.000256416
-0.000158881
2.78454e-05
-0.000237979
-0.0003368
-0.000178662
-0.000126132
-3.61533e-05
-0.000132808
-0.000120712
3.86057e-05
-0.000381227
-0.000672881
-0.000169709
1.18342e-05
-0.000696377
-0.00124919
-0.00102917
-0.000655112
4.3354e-05
-0.000244422
-0.000167888
2.63514e-05
-0.000241258
-0.000354735
-0.000203054
-0.000177235
-0.000108138
-0.000173819
-0.000182523
-6.08789e-05
-0.00043049
-0.000757501
-0.000375121
-0.000169681
-0.000791091
-0.00141178
-0.00131451
-0.000922541
4.28893e-05
-0.000230905
-0.000178056
2.35991e-05
-0.000239314
-0.000380413
-0.000240505
-0.000231527
-0.000180643
-0.000219569
-0.000239935
-0.000158569
-0.000490411
-0.000840409
-0.00057364
-0.000366809
-0.000896999
-0.00155192
-0.00157529
-0.00119973
4.24908e-05
-0.000215875
-0.000189468
1.66781e-05
-0.000233608
-0.00041158
-0.00029085
-0.000281957
-0.000248995
-0.000271797
-0.000299236
-0.000254811
-0.000558836
-0.00092343
-0.000763346
-0.000574891
-0.00101792
-0.00167597
-0.00180808
-0.00147599
4.18153e-05
-0.000199457
-0.000201996
2.59639e-06
-0.000226448
-0.000441706
-0.000348206
-0.000330475
-0.000313083
-0.000331656
-0.000365126
-0.00035126
-0.000633782
-0.00100624
-0.000942793
-0.00078909
-0.00115558
-0.00179117
-0.00201275
-0.00174184
4.06196e-05
-0.000181748
-0.000215358
-2.02544e-05
-0.00021924
-0.000466215
-0.000410365
-0.000384459
-0.000374893
-0.000397062
-0.000438498
-0.000449832
-0.000714342
-0.00108864
-0.00111068
-0.00100488
-0.00130989
-0.00190443
-0.00219214
-0.00199061
3.87552e-05
-0.000162982
-0.000228469
-5.21693e-05
-0.000214482
-0.00048427
-0.000475358
-0.000446065
-0.000436207
-0.00046353
-0.000517609
-0.000552206
-0.000800697
-0.00117187
-0.00126676
-0.00121698
-0.0014782
-0.00202117
-0.00235096
-0.00221919
3.59829e-05
-0.00014365
-0.000239989
-9.26322e-05
-0.000216056
-0.000495758
-0.000539472
-0.000515852
-0.000499355
-0.000529209
-0.000599509
-0.00065903
-0.000894935
-0.00125836
-0.00141209
-0.00141968
-0.00165545
-0.00214478
-0.00249389
-0.00242666
3.22824e-05
-0.000124533
-0.000248816
-0.000140349
-0.000227498
-0.000501543
-0.000599025
-0.000593487
-0.000568032
-0.000594449
-0.000681087
-0.000769392
-0.000998055
-0.0013494
-0.00154838
-0.00161085
-0.00183607
-0.0022768
-0.00262559
-0.00261253
2.76655e-05
-0.000106655
-0.000254355
-0.000193268
-0.000251369
-0.000504259
-0.000651289
-0.000676375
-0.000645328
-0.000661381
-0.000760318
-0.000879812
-0.00110862
-0.00144705
-0.00167874
-0.00179044
-0.00201469
-0.00241604
-0.00275157
-0.00277706
2.2143e-05
-9.12454e-05
-0.000256593
-0.000248521
-0.000288861
-0.000508417
-0.000694103
-0.000759661
-0.000731741
-0.000734093
-0.000837902
-0.000986389
-0.00122353
-0.00155267
-0.00180638
-0.00195908
-0.00218722
-0.00255844
-0.00287678
-0.0029232
1.57301e-05
-7.94549e-05
-0.000255889
-0.000315119
-0.000339445
-0.000517966
-0.000727611
-0.000838844
-0.000826337
-0.000815984
-0.000915511
-0.00108772
-0.00133833
-0.00166374
-0.00193447
-0.00211947
-0.00235266
-0.00269953
-0.00300296
-0.0030574
8.46647e-06
-7.28805e-05
-0.000253277
-0.000366414
-0.000400974
-0.000538891
-0.000754343
-0.000910364
-0.00092624
-0.000908696
-0.000996139
-0.0011843
-0.00145001
-0.0017767
-0.00206286
-0.00227451
-0.00251248
-0.00283701
-0.00312792
-0.00318622
2.81648e-07
-7.14716e-05
-0.000247386
-0.000410389
-0.000469745
-0.000573844
-0.00077937
-0.000972421
-0.00102614
-0.00101169
-0.00108412
-0.0012772
-0.001557
-0.00188885
-0.00218878
-0.00242449
-0.00266845
-0.00297142
-0.0032483
-0.00331193
-8.89558e-06
-7.5361e-05
-0.00024855
-0.000446997
-0.000541164
-0.000623677
-0.000808648
-0.00102552
-0.00112058
-0.00112241
-0.0011825
-0.00136957
-0.00165828
-0.00199793
-0.00231097
-0.00256764
-0.00282052
-0.00310486
-0.00336316
-0.00343255
-1.91641e-05
-8.43109e-05
-0.000253959
-0.00047724
-0.000611331
-0.000687586
-0.000846821
-0.00107182
-0.00120672
-0.00123594
-0.00129052
-0.00146651
-0.00175491
-0.00210117
-0.00242831
-0.00270256
-0.00296589
-0.00323816
-0.00347445
-0.00354536
-3.08062e-05
-9.79435e-05
-0.000264933
-0.000504243
-0.000677387
-0.000762123
-0.000896916
-0.00111575
-0.00128376
-0.00134677
-0.00140511
-0.00157031
-0.00185135
-0.00219854
-0.00253846
-0.00282907
-0.00310159
-0.00336896
-0.00358479
-0.00364983
-4.42281e-05
-0.000115265
-0.00028228
-0.000530135
-0.000737689
-0.000842102
-0.000959563
-0.00116302
-0.00135229
-0.00145101
-0.00152259
-0.00167911
-0.0019506
-0.00229268
-0.00264027
-0.00294642
-0.00322664
-0.00349286
-0.00369468
-0.00374822
-5.9931e-05
-0.000135586
-0.000306157
-0.000558
-0.000792094
-0.000922722
-0.00103354
-0.00121793
-0.00141491
-0.00154615
-0.00163869
-0.00179122
-0.0020517
-0.00238641
-0.00273528
-0.00305351
-0.00334122
-0.00360642
-0.00380092
-0.00384288
-7.84761e-05
-0.000158696
-0.000335851
-0.000590055
-0.000842035
-0.00100108
-0.00111593
-0.001282
-0.00147669
-0.00163232
-0.00174846
-0.00190455
-0.00215387
-0.00247901
-0.00282609
-0.00315077
-0.0034452
-0.00370907
-0.003899
-0.0039332
-0.000100399
-0.000184623
-0.000370063
-0.000627533
-0.000890665
-0.00107592
-0.00120248
-0.00135473
-0.00154162
-0.00171172
-0.00184877
-0.00201394
-0.00225618
-0.00256939
-0.0029124
-0.00323992
-0.00353831
-0.00380149
-0.00398699
-0.00401638
-0.00012613
-0.000213627
-0.000407815
-0.000670498
-0.000941016
-0.00114768
-0.00128939
-0.0014346
-0.00161128
-0.00178776
-0.00194088
-0.00211458
-0.00235484
-0.0026572
-0.0029924
-0.00332099
-0.00362068
-0.00388294
-0.00406484
-0.00408996
-0.000156018
-0.000246164
-0.000448532
-0.000718567
-0.0009948
-0.00121766
-0.00137497
-0.00151901
-0.0016859
-0.00186231
-0.00202611
-0.00220614
-0.00244456
-0.00273968
-0.00306538
-0.00339162
-0.00369171
-0.00395167
-0.00413148
-0.00415354
-0.000190257
-0.000282748
-0.000492286
-0.000770931
-0.00105262
-0.00128802
-0.00145965
-0.00160525
-0.00176462
-0.00193656
-0.00210489
-0.00228941
-0.00252348
-0.00281165
-0.00312936
-0.00344991
-0.00374925
-0.0040064
-0.00418459
-0.00420599
-0.000228852
-0.000323782
-0.00053962
-0.000826984
-0.00111467
-0.00136022
-0.00154417
-0.00169253
-0.00184595
-0.00201123
-0.00217783
-0.00236307
-0.00259185
-0.00287
-0.0031802
-0.00349451
-0.00379108
-0.0040457
-0.00422134
-0.00424404
-0.000271826
-0.000369459
-0.000590886
-0.000886684
-0.00118122
-0.0014353
-0.00162924
-0.00178109
-0.001929
-0.00208601
-0.00224643
-0.00242615
-0.00264767
-0.00291344
-0.0032126
-0.00352097
-0.00381357
-0.00406591
-0.00423885
-0.00426343
-0.000319307
-0.000419816
-0.000646532
-0.000950139
-0.001252
-0.00151439
-0.0017165
-0.00187115
-0.00201361
-0.00216046
-0.00231172
-0.00248007
-0.00268818
-0.00293901
-0.00322215
-0.00352118
-0.00380938
-0.00405948
-0.00423128
-0.00425809
-0.00037145
-0.000474768
-0.000706768
-0.00101785
-0.00132709
-0.00159765
-0.00180782
-0.00196442
-0.00210048
-0.00223529
-0.00237385
-0.00252631
-0.00271325
-0.00294253
-0.00320364
-0.00348598
-0.00376734
-0.00401519
-0.00418805
-0.00421967
-0.000428483
-0.000534665
-0.000771325
-0.00108976
-0.00140741
-0.00168629
-0.00190396
-0.00206266
-0.00219142
-0.00231215
-0.00243453
-0.0025662
-0.00272455
-0.00291995
-0.003148
-0.00340201
-0.003669
-0.00391577
-0.00409424
-0.00413791
-0.000490328
-0.000599977
-0.000840092
-0.00116616
-0.00149356
-0.00178185
-0.00200745
-0.00216838
-0.00228969
-0.00239351
-0.00249444
-0.00259975
-0.00272373
-0.00287326
-0.00305228
-0.00325697
-0.00348335
-0.00371309
-0.00389912
-0.00397181
-0.000555214
-0.0006678
-0.000914194
-0.00124956
-0.00158714
-0.00188438
-0.00211984
-0.00228732
-0.00240387
-0.00248976
-0.00255847
-0.00262314
-0.00270199
-0.002801
-0.00292592
-0.00307328
-0.00323562
-0.00340444
-0.00354706
-0.00360846
-0.000622133
-0.000738178
-0.000994718
-0.00133927
-0.00168725
-0.00199418
-0.0022408
-0.00242109
-0.00254414
-0.00262613
-0.00267019
-0.00266294
-0.00262409
-0.00257473
-0.00255118
-0.0025996
-0.00274102
-0.00296371
-0.00321336
-0.00340456
-0.000693226
-0.000817302
-0.00107969
-0.00142937
-0.00178599
-0.00210457
-0.00236644
-0.00256837
-0.00270972
-0.00280762
-0.0028959
-0.00296259
-0.00296825
-0.00281914
-0.00245469
-0.00201264
-0.00162756
-0.00135595
-0.00120545
-0.00118706
-0.000767793
-0.000906817
-0.0011761
-0.00152836
-0.00188977
-0.00221106
-0.00247905
-0.00269753
-0.00286175
-0.00296099
-0.00293221
-0.00271531
-0.0024105
-0.00212831
-0.00190874
-0.00174835
-0.0016205
-0.00150507
-0.00142057
-0.00142948
-0.000841848
-0.000973659
-0.00126155
-0.00164357
-0.00204733
-0.00241499
-0.00271175
-0.00289302
-0.00289455
-0.00274696
-0.00255649
-0.00237658
-0.00222293
-0.00206177
-0.00185758
-0.00160234
-0.00131548
-0.00104527
-0.000852772
-0.000821502
-0.000950798
-0.00109431
-0.0013259
-0.00164172
-0.00199498
-0.00231323
-0.00254029
-0.00267408
-0.00271967
-0.00271323
-0.0027127
-0.00271644
-0.00272228
-0.00271293
-0.00260797
-0.00233895
-0.00187304
-0.00128913
-0.000768546
-0.000496559
-0.00100609
-0.00117374
-0.00148449
-0.00184755
-0.00218929
-0.00244859
-0.00260598
-0.00269182
-0.00270739
-0.00264237
-0.00252701
-0.00237223
-0.00216559
-0.00193254
-0.00168267
-0.0014208
-0.0011673
-0.000948495
-0.000820516
-0.000854454
-0.00105039
-0.00119936
-0.0014729
-0.00183081
-0.00221196
-0.00254202
-0.00274487
-0.00280186
-0.00273603
-0.00258726
-0.00242477
-0.00229795
-0.00218606
-0.00207364
-0.00194749
-0.00177777
-0.00156455
-0.00133947
-0.00117518
-0.00115909
0.019418
0.0111692
0.00169171
-0.00485811
-0.00684832
-0.00643806
-0.00587863
-0.00553412
-0.00519527
-0.0048289
-0.00450689
-0.0043078
-0.00432544
-0.00452859
-0.00471026
-0.00474629
-0.00472228
-0.00473582
-0.00481911
-0.00498088
-0.00514708
-0.0052367
-0.00530135
-0.00541742
-0.00556618
-0.00569202
-0.00576831
-0.0058127
-0.00587486
-0.00597183
-0.00606163
-0.00611951
-0.00617766
-0.00626902
-0.00638089
-0.00648672
-0.00658965
-0.00670501
-0.00681901
-0.00690625
-0.00698157
-0.00707069
-0.00716044
-0.00722962
-0.00730809
-0.00742186
-0.0075439
-0.00765086
-0.00775835
-0.00787921
-0.00799067
-0.00807824
-0.00817196
-0.00828073
-0.00837789
-0.0084786
-0.008597
-0.00871542
-0.00883208
-0.00895493
-0.00907673
-0.00919621
-0.00931555
-0.00942777
-0.00954279
-0.00966562
-0.00979602
-0.00992933
-0.0100642
-0.0101952
-0.0103267
-0.0104626
-0.0105993
-0.0107369
-0.0108754
-0.0110138
-0.0111555
-0.0112962
-0.0114426
-0.0115859
-0.0117304
-0.0118746
-0.0120201
-0.0121705
-0.0123212
-0.0124703
-0.0126241
-0.0127756
-0.0129324
-0.0130942
-0.0132548
-0.0134204
-0.0135861
-0.0137544
-0.0139286
-0.01411
-0.0143022
-0.014482
-0.0147382
-0.0150036
0.0182857
0.0109837
0.00177256
-0.00470868
-0.00675943
-0.00639738
-0.00585616
-0.00552018
-0.00518528
-0.00482071
-0.00449954
-0.0043007
-0.0043187
-0.00452278
-0.00470549
-0.00474216
-0.0047185
-0.00473232
-0.00481583
-0.00497794
-0.00514458
-0.00523444
-0.00529915
-0.00541534
-0.00556429
-0.00569032
-0.00576676
-0.00581123
-0.00587344
-0.00597052
-0.00606046
-0.00611843
-0.00617661
-0.00626802
-0.00637996
-0.00648585
-0.00658882
-0.00670422
-0.00681828
-0.00690557
-0.00698091
-0.00707005
-0.00715985
-0.00722906
-0.00730752
-0.00742131
-0.00754339
-0.00765038
-0.00775787
-0.00787876
-0.00799025
-0.00807784
-0.00817156
-0.00828035
-0.00837754
-0.00847825
-0.00859666
-0.00871511
-0.00883177
-0.00895463
-0.00907645
-0.00919594
-0.00931529
-0.00942752
-0.00954255
-0.00966539
-0.0097958
-0.00992912
-0.010064
-0.010195
-0.0103265
-0.0104624
-0.0105991
-0.0107367
-0.0108752
-0.0110136
-0.0111554
-0.011296
-0.0114425
-0.0115857
-0.0117303
-0.0118745
-0.01202
-0.0121704
-0.0123211
-0.0124702
-0.012624
-0.0127755
-0.0129323
-0.0130941
-0.0132547
-0.0134203
-0.013586
-0.0137543
-0.0139286
-0.0141099
-0.0143021
-0.014482
-0.0147382
-0.0150036
0.0173095
0.0108091
0.00193525
-0.00444063
-0.00660988
-0.00634067
-0.00582583
-0.00549881
-0.00517005
-0.00480977
-0.00449158
-0.00429442
-0.00431297
-0.00451726
-0.00470037
-0.00473761
-0.00471461
-0.00472894
-0.00481272
-0.00497512
-0.00514216
-0.00523229
-0.00529714
-0.0054135
-0.00556263
-0.0056888
-0.00576535
-0.00580987
-0.00587214
-0.00596935
-0.0060594
-0.00611743
-0.00617564
-0.00626711
-0.00637913
-0.00648508
-0.00658809
-0.00670353
-0.00681766
-0.00690498
-0.00698032
-0.00706949
-0.00715934
-0.00722855
-0.00730701
-0.00742083
-0.00754296
-0.00764996
-0.00775746
-0.00787837
-0.0079899
-0.00807749
-0.00817121
-0.00828003
-0.00837723
-0.00847794
-0.00859637
-0.00871483
-0.0088315
-0.00895437
-0.00907621
-0.00919571
-0.00931507
-0.00942731
-0.00954233
-0.00966518
-0.0097956
-0.00992893
-0.0100638
-0.0101948
-0.0103264
-0.0104622
-0.010599
-0.0107366
-0.0108751
-0.0110135
-0.0111552
-0.0112959
-0.0114423
-0.0115856
-0.0117302
-0.0118744
-0.0120199
-0.0121703
-0.012321
-0.0124701
-0.0126239
-0.0127754
-0.0129323
-0.0130941
-0.0132547
-0.0134202
-0.0135859
-0.0137542
-0.0139285
-0.0141099
-0.014302
-0.0144819
-0.0147381
-0.0150036
0.0163998
0.0106109
0.0021363
-0.00410152
-0.00640057
-0.00625412
-0.00577513
-0.00546108
-0.0051433
-0.00479177
-0.00448036
-0.00428779
-0.00430781
-0.00451127
-0.00469351
-0.00473126
-0.00470972
-0.00472517
-0.00480913
-0.00497141
-0.00513872
-0.00522941
-0.00529482
-0.0054115
-0.00556071
-0.00568697
-0.0057637
-0.00580837
-0.00587071
-0.00596799
-0.00605815
-0.00611626
-0.00617454
-0.00626609
-0.00637821
-0.00648424
-0.0065873
-0.00670281
-0.006817
-0.00690434
-0.0069797
-0.00706891
-0.0071588
-0.00722801
-0.00730646
-0.00742033
-0.00754251
-0.00764952
-0.00775703
-0.00787798
-0.00798954
-0.00807713
-0.00817085
-0.0082797
-0.0083769
-0.00847761
-0.00859607
-0.00871455
-0.00883122
-0.00895411
-0.00907596
-0.00919547
-0.00931484
-0.00942709
-0.00954212
-0.00966497
-0.0097954
-0.00992874
-0.0100636
-0.0101947
-0.0103262
-0.0104621
-0.0105988
-0.0107364
-0.010875
-0.0110133
-0.0111551
-0.0112957
-0.0114422
-0.0115855
-0.01173
-0.0118743
-0.0120198
-0.0121702
-0.0123209
-0.01247
-0.0126238
-0.0127753
-0.0129322
-0.013094
-0.0132546
-0.0134201
-0.0135859
-0.0137542
-0.0139284
-0.0141098
-0.014302
-0.0144818
-0.014738
-0.0150037
0.015499
0.0103777
0.00234697
-0.0037384
-0.00616421
-0.00615136
-0.00571153
-0.00540969
-0.00510475
-0.00476532
-0.00446432
-0.00427976
-0.00430279
-0.00450438
-0.00468415
-0.00472227
-0.00470337
-0.00472105
-0.00480525
-0.00496654
-0.00513344
-0.00522503
-0.00529171
-0.00540897
-0.00555812
-0.00568439
-0.00576149
-0.00580657
-0.00586904
-0.00596628
-0.00605648
-0.00611473
-0.00617315
-0.00626478
-0.00637701
-0.00648318
-0.00658637
-0.00670195
-0.0068162
-0.0069036
-0.00697898
-0.00706823
-0.00715815
-0.00722738
-0.00730584
-0.00741977
-0.00754199
-0.00764903
-0.00775656
-0.00787754
-0.00798913
-0.00807672
-0.00817044
-0.00827933
-0.00837654
-0.00847725
-0.00859574
-0.00871423
-0.00883092
-0.00895382
-0.00907568
-0.0091952
-0.00931459
-0.00942684
-0.00954187
-0.00966474
-0.00979518
-0.00992854
-0.0100634
-0.0101945
-0.010326
-0.0104619
-0.0105987
-0.0107363
-0.0108748
-0.0110132
-0.0111549
-0.0112956
-0.0114421
-0.0115854
-0.0117299
-0.0118741
-0.0120197
-0.0121701
-0.0123208
-0.0124699
-0.0126237
-0.0127752
-0.0129321
-0.0130939
-0.0132545
-0.01342
-0.0135858
-0.0137541
-0.0139283
-0.0141097
-0.0143019
-0.0144818
-0.0147379
-0.0150039
0.0146123
0.010114
0.00255027
-0.0033713
-0.00591533
-0.00604236
-0.00564478
-0.00535238
-0.00505896
-0.00473266
-0.00444422
-0.00427013
-0.00429741
-0.0044964
-0.00467242
-0.00471078
-0.00469558
-0.00471673
-0.00480143
-0.00496078
-0.00512636
-0.00521895
-0.00528751
-0.00540558
-0.00555444
-0.0056806
-0.00575839
-0.00580435
-0.0058671
-0.00596415
-0.00605429
-0.00611279
-0.00617142
-0.00626306
-0.00637534
-0.00648175
-0.00658518
-0.00670087
-0.00681519
-0.00690269
-0.00697816
-0.00706742
-0.00715735
-0.0072266
-0.00730512
-0.00741909
-0.00754136
-0.00764845
-0.00775602
-0.00787702
-0.00798864
-0.00807625
-0.00816998
-0.00827889
-0.00837612
-0.00847684
-0.00859537
-0.00871388
-0.00883057
-0.0089535
-0.00907538
-0.0091949
-0.00931431
-0.00942657
-0.0095416
-0.00966447
-0.00979493
-0.0099283
-0.0100632
-0.0101943
-0.0103258
-0.0104617
-0.0105985
-0.0107361
-0.0108746
-0.011013
-0.0111548
-0.0112955
-0.0114419
-0.0115852
-0.0117298
-0.011874
-0.0120195
-0.0121699
-0.0123207
-0.0124698
-0.0126236
-0.0127751
-0.012932
-0.0130938
-0.0132544
-0.0134199
-0.0135857
-0.013754
-0.0139282
-0.0141096
-0.0143018
-0.0144817
-0.0147378
-0.015004
0.0137516
0.00982034
0.00273493
-0.00300693
-0.00565551
-0.00592771
-0.00557734
-0.00529249
-0.00500863
-0.0046956
-0.00442102
-0.0042589
-0.00429127
-0.0044874
-0.00465902
-0.00469755
-0.00468674
-0.0047123
-0.00479785
-0.00495463
-0.00511806
-0.00521157
-0.00528237
-0.00540122
-0.00554942
-0.0056753
-0.00575412
-0.00580151
-0.00586479
-0.00596153
-0.00605157
-0.0061105
-0.00616942
-0.00626093
-0.00637311
-0.00647981
-0.0065836
-0.00669941
-0.00681383
-0.00690156
-0.00697722
-0.00706647
-0.00715635
-0.00722567
-0.00730425
-0.00741824
-0.00754055
-0.00764775
-0.00775539
-0.00787641
-0.00798805
-0.0080757
-0.00816945
-0.00827838
-0.00837561
-0.00847637
-0.00859493
-0.00871346
-0.00883017
-0.00895312
-0.00907502
-0.00919456
-0.00931398
-0.00942624
-0.00954128
-0.00966417
-0.00979464
-0.00992804
-0.0100629
-0.010194
-0.0103256
-0.0104615
-0.0105982
-0.0107359
-0.0108744
-0.0110128
-0.0111546
-0.0112953
-0.0114418
-0.0115851
-0.0117296
-0.0118739
-0.0120194
-0.0121698
-0.0123205
-0.0124697
-0.0126235
-0.0127749
-0.0129318
-0.0130937
-0.0132543
-0.0134198
-0.0135856
-0.0137539
-0.0139281
-0.0141095
-0.0143017
-0.0144815
-0.0147376
-0.0150043
0.0129239
0.00949549
0.00289427
-0.00264635
-0.00538158
-0.00580415
-0.00550866
-0.00523107
-0.0049549
-0.004655
-0.0043951
-0.004246
-0.00428422
-0.00447763
-0.00464461
-0.00468325
-0.00467715
-0.00470762
-0.00479433
-0.00494833
-0.00510923
-0.0052036
-0.00527672
-0.00539611
-0.00554315
-0.00566849
-0.00574859
-0.00579789
-0.00586195
-0.00595834
-0.00604831
-0.00610794
-0.00616732
-0.00625854
-0.0063704
-0.00647733
-0.00658152
-0.00669745
-0.00681196
-0.00690009
-0.00697611
-0.00706537
-0.00715517
-0.00722457
-0.00730324
-0.00741717
-0.0075395
-0.00764685
-0.00775463
-0.00787566
-0.00798733
-0.00807506
-0.00816884
-0.00827776
-0.00837501
-0.00847581
-0.00859441
-0.00871296
-0.0088297
-0.00895269
-0.00907461
-0.00919416
-0.00931359
-0.00942587
-0.00954091
-0.00966381
-0.0097943
-0.00992772
-0.0100626
-0.0101937
-0.0103253
-0.0104612
-0.010598
-0.0107356
-0.0108742
-0.0110126
-0.0111544
-0.0112951
-0.0114416
-0.0115849
-0.0117295
-0.0118737
-0.0120192
-0.0121697
-0.0123204
-0.0124695
-0.0126234
-0.0127748
-0.0129317
-0.0130936
-0.0132542
-0.0134197
-0.0135855
-0.0137538
-0.013928
-0.0141094
-0.0143016
-0.0144814
-0.0147373
-0.0150045
0.0121323
0.00914211
0.00302677
-0.00228851
-0.00509079
-0.00566929
-0.00543876
-0.00516955
-0.00489895
-0.00461135
-0.00436657
-0.0042314
-0.00427629
-0.0044673
-0.00462953
-0.0046682
-0.00466691
-0.00470255
-0.00479063
-0.00494189
-0.00510017
-0.00519543
-0.00527088
-0.00539055
-0.005536
-0.0056605
-0.00574196
-0.0057935
-0.00585852
-0.00595454
-0.0060445
-0.00610512
-0.00616522
-0.00625611
-0.00636743
-0.00647447
-0.00657901
-0.00669493
-0.00680948
-0.00689815
-0.00697472
-0.00706407
-0.00715381
-0.00722339
-0.00730214
-0.0074159
-0.00753815
-0.0076457
-0.00775365
-0.00787469
-0.00798644
-0.00807433
-0.00816817
-0.00827704
-0.0083743
-0.00847515
-0.00859378
-0.00871235