/*--------------------------------*- C++ -*----------------------------------*\
| =========                 |                                                 |
| \\      /  F ield         | OpenFOAM: The Open Source CFD Toolbox           |
|  \\    /   O peration     | Version:  3.0.1                                 |
|   \\  /    A nd           | Web:      www.OpenFOAM.org                      |
|    \\/     M anipulation  |                                                 |
\*---------------------------------------------------------------------------*/
FoamFile
{
    version     2.0;
    format      ascii;
    class       surfaceScalarField;
    location    "2.2";
    object      phi;
}
// * * * * * * * * * * * * * * * * * * * * * * * * * * * * * * * * * * * * * //

dimensions      [0 3 -1 0 0 0 0];

internalField   nonuniform List<scalar> 
19000
(
1.17256e-06
-6.9538e-09
1.17574e-06
-1.87241e-07
1.17679e-06
3.8044e-07
1.12287e-06
1.22717e-07
1.14136e-06
-3.10312e-07
1.20534e-06
-4.807e-07
1.19865e-06
-1.41136e-07
1.16482e-06
-1.09199e-07
1.18031e-06
7.60477e-07
1.12749e-06
1.56025e-07
1.1417e-06
4.73594e-07
1.11866e-06
6.97877e-08
1.12879e-06
-2.44805e-07
1.13631e-06
-1.73073e-07
1.1402e-06
-3.34743e-07
1.14667e-06
-2.30586e-07
1.15959e-06
-3.04771e-07
1.15707e-06
-1.88293e-07
1.16508e-06
-1.83328e-07
-1.44575e-07
1.12859e-06
1.22744e-06
-1.01281e-08
1.23161e-06
-1.91413e-07
1.2298e-06
3.82244e-07
1.18107e-06
1.71447e-07
1.19722e-06
-3.26459e-07
1.25859e-06
-5.42071e-07
1.25313e-06
-1.3567e-07
1.22244e-06
-7.85078e-08
1.23022e-06
7.52692e-07
1.18695e-06
1.99297e-07
1.18757e-06
4.72969e-07
1.18386e-06
7.35051e-08
1.18199e-06
-2.4294e-07
1.20169e-06
-1.92769e-07
1.19435e-06
-3.27404e-07
1.21433e-06
-2.50571e-07
1.20928e-06
-2.9972e-07
1.22777e-06
-2.0678e-07
1.20996e-06
-1.65514e-07
-1.45843e-07
1.21122e-06
1.28392e-06
-1.12608e-08
1.28996e-06
-1.97461e-07
1.28451e-06
3.87698e-07
1.24602e-06
2.09938e-07
1.25613e-06
-3.36569e-07
1.31257e-06
-5.98513e-07
1.30961e-06
-1.32713e-07
1.28292e-06
-5.1819e-08
1.28219e-06
7.53432e-07
1.25317e-06
2.28315e-07
1.2436e-06
4.82533e-07
1.25346e-06
6.36516e-08
1.24393e-06
-2.33415e-07
1.26374e-06
-2.12577e-07
1.25611e-06
-3.19774e-07
1.2719e-06
-2.66359e-07
1.2692e-06
-2.97019e-07
1.28048e-06
-2.18067e-07
1.27215e-06
-1.57177e-07
-1.35042e-07
1.26135e-06
1.34276e-06
-9.91497e-09
1.35053e-06
-2.0523e-07
1.34233e-06
3.95893e-07
1.31574e-06
2.36527e-07
1.31876e-06
-3.39586e-07
1.36746e-06
-6.47209e-07
1.36832e-06
-1.33573e-07
1.34605e-06
-2.95491e-08
1.34e-06
7.59481e-07
1.32259e-06
2.45717e-07
1.3117e-06
4.93424e-07
1.32378e-06
5.15727e-08
1.31409e-06
-2.23728e-07
1.32619e-06
-2.24669e-07
1.32331e-06
-3.16895e-07
1.33209e-06
-2.75144e-07
1.33246e-06
-2.97388e-07
1.33944e-06
-2.25042e-07
1.335e-06
-1.52745e-07
-1.2341e-07
1.32337e-06
1.40493e-06
-6.49042e-09
1.41313e-06
-2.13427e-07
1.40439e-06
4.04633e-07
1.38836e-06
2.52549e-07
1.3855e-06
-3.36724e-07
1.42372e-06
-6.85431e-07
1.42942e-06
-1.39267e-07
1.41146e-06
-1.15949e-08
1.40439e-06
7.66553e-07
1.39412e-06
2.55983e-07
1.38749e-06
5.00058e-07
1.39623e-06
4.28382e-08
1.38821e-06
-2.15708e-07
1.39359e-06
-2.30058e-07
1.39205e-06
-3.15347e-07
1.39773e-06
-2.80827e-07
1.39706e-06
-2.96718e-07
1.4029e-06
-2.30884e-07
1.39964e-06
-1.49485e-07
-1.12817e-07
1.38905e-06
1.47123e-06
-2.04111e-09
1.47819e-06
-2.20385e-07
1.47131e-06
4.11511e-07
1.46316e-06
2.607e-07
1.45654e-06
-3.3011e-07
1.4827e-06
-7.11585e-07
1.49235e-06
-1.48921e-07
1.47929e-06
1.46374e-09
1.47442e-06
7.71427e-07
1.46825e-06
2.62152e-07
1.4665e-06
5.01802e-07
1.47164e-06
3.77004e-08
1.46411e-06
-2.08178e-07
1.46552e-06
-2.31461e-07
1.46252e-06
-3.12353e-07
1.4663e-06
-2.84604e-07
1.46406e-06
-2.94481e-07
1.46795e-06
-2.34771e-07
1.46602e-06
-1.47552e-07
-1.02666e-07
1.45586e-06
1.54188e-06
2.2958e-09
1.54648e-06
-2.2499e-07
1.54295e-06
4.15044e-07
1.54027e-06
2.63382e-07
1.53164e-06
-3.2148e-07
1.5459e-06
-7.25842e-07
1.55686e-06
-1.59884e-07
1.54936e-06
8.96671e-09
1.54855e-06
7.72228e-07
1.54516e-06
2.65551e-07
1.547e-06
4.9996e-07
1.54968e-06
3.50184e-08
1.54189e-06
-2.0039e-07
1.54077e-06
-2.30341e-07
1.53594e-06
-3.07524e-07
1.53738e-06
-2.86037e-07
1.53402e-06
-2.91122e-07
1.5351e-06
-2.35851e-07
1.53394e-06
-1.4639e-07
-9.28483e-08
1.52412e-06
1.61658e-06
5.84342e-09
1.61868e-06
-2.27089e-07
1.61868e-06
4.15039e-07
1.61989e-06
2.62176e-07
1.61027e-06
-3.11857e-07
1.6143e-06
-7.29878e-07
1.62366e-06
-1.69242e-07
1.62144e-06
1.11892e-08
1.62545e-06
7.68222e-07
1.6244e-06
2.66598e-07
1.62886e-06
4.95502e-07
1.62988e-06
3.40005e-08
1.62194e-06
-1.92456e-07
1.61895e-06
-2.27352e-07
1.61284e-06
-3.01412e-07
1.61168e-06
-2.8487e-07
1.60735e-06
-2.86802e-07
1.60542e-06
-2.3392e-07
1.60419e-06
-1.45157e-07
-8.32751e-08
1.59462e-06
1.6949e-06
8.52021e-09
1.69506e-06
-2.27249e-07
1.69793e-06
4.12166e-07
1.70202e-06
2.58091e-07
1.69197e-06
-3.01808e-07
1.6882e-06
-7.26108e-07
1.69409e-06
-1.75138e-07
1.69581e-06
9.47177e-09
1.70442e-06
7.59616e-07
1.70552e-06
2.65488e-07
1.71229e-06
4.88739e-07
1.71207e-06
3.42164e-08
1.70441e-06
-1.84796e-07
1.69998e-06
-2.22918e-07
1.69327e-06
-2.94705e-07
1.68965e-06
-2.81252e-07
1.68449e-06
-2.81639e-07
1.67969e-06
-2.29117e-07
1.67771e-06
-1.43177e-07
-7.3836e-08
1.66827e-06
1.77665e-06
1.05921e-08
1.77561e-06
-2.26214e-07
1.78046e-06
4.07323e-07
1.78665e-06
2.51894e-07
1.77654e-06
-2.91691e-07
1.76737e-06
-7.16945e-07
1.76936e-06
-1.7712e-07
1.77324e-06
5.58817e-09
1.78562e-06
7.47232e-07
1.78856e-06
2.6255e-07
1.79755e-06
4.79754e-07
1.7964e-06
3.53646e-08
1.78939e-06
-1.77791e-07
1.78382e-06
-2.17345e-07
1.77713e-06
-2.88016e-07
1.77142e-06
-2.75544e-07
1.76563e-06
-2.75842e-07
1.75837e-06
-2.21857e-07
1.75517e-06
-1.3998e-07
-6.45194e-08
1.74585e-06
1.86198e-06
1.23562e-08
1.86028e-06
-2.24508e-07
1.86635e-06
4.01253e-07
1.87404e-06
2.44207e-07
1.86407e-06
-2.81724e-07
1.8515e-06
-7.04372e-07
1.85014e-06
-1.75761e-07
1.85463e-06
1.09e-09
1.86979e-06
7.32077e-07
1.87405e-06
2.58293e-07
1.88508e-06
4.68722e-07
1.88322e-06
3.72218e-08
1.87712e-06
-1.71687e-07
1.87059e-06
-2.10815e-07
1.86437e-06
-2.81797e-07
1.85701e-06
-2.68182e-07
1.8508e-06
-2.69633e-07
1.84174e-06
-2.12799e-07
1.837e-06
-1.35246e-07
-5.54966e-08
1.82798e-06
1.95121e-06
1.39866e-08
1.94908e-06
-2.22376e-07
1.95587e-06
3.94463e-07
1.96458e-06
2.35496e-07
1.95485e-06
-2.71992e-07
1.94028e-06
-6.89802e-07
1.93658e-06
-1.72068e-07
1.94065e-06
-2.97818e-09
1.9577e-06
7.15029e-07
1.96269e-06
2.53302e-07
1.97548e-06
4.55931e-07
1.97305e-06
3.96555e-08
1.96797e-06
-1.66611e-07
1.96056e-06
-2.03405e-07
1.95506e-06
-2.76294e-07
1.94649e-06
-2.59607e-07
1.93996e-06
-2.63104e-07
1.92991e-06
-2.0275e-07
1.92345e-06
-1.28787e-07
-4.70597e-08
1.91501e-06
2.04463e-06
1.55442e-08
2.04215e-06
-2.19895e-07
2.04936e-06
3.87255e-07
2.05877e-06
2.26084e-07
2.04927e-06
-2.62486e-07
2.03357e-06
-6.74106e-07
2.02853e-06
-1.67033e-07
2.03161e-06
-6.05733e-09
2.04994e-06
6.96706e-07
2.05514e-06
2.48097e-07
2.06941e-06
4.41665e-07
2.06645e-06
4.26158e-08
2.06244e-06
-1.62605e-07
2.05417e-06
-1.95137e-07
2.04942e-06
-2.71544e-07
2.04006e-06
-2.50241e-07
2.03313e-06
-2.56176e-07
2.02288e-06
-1.92506e-07
2.01471e-06
-1.20616e-07
-3.94486e-08
2.0071e-06
2.1425e-06
1.70419e-08
2.13971e-06
-2.17106e-07
2.14717e-06
3.79796e-07
2.15706e-06
2.16194e-07
2.14773e-06
-2.53156e-07
2.13137e-06
-6.5774e-07
2.12575e-06
-1.61414e-07
2.12763e-06
-7.93649e-09
2.14687e-06
6.77462e-07
2.1519e-06
2.43067e-07
2.16744e-06
4.26121e-07
2.16395e-06
4.61109e-08
2.161e-06
-1.59658e-07
2.1519e-06
-1.86035e-07
2.14776e-06
-2.674e-07
2.138e-06
-2.40483e-07
2.1304e-06
-2.48582e-07
2.12065e-06
-1.82755e-07
2.111e-06
-1.10965e-07
-3.26938e-08
2.10425e-06
2.24504e-06
1.84885e-08
2.242e-06
-2.14067e-07
2.24964e-06
3.72163e-07
2.25983e-06
2.06e-07
2.25063e-06
-2.43957e-07
2.23377e-06
-6.40883e-07
2.22807e-06
-1.5571e-07
2.22875e-06
-8.6143e-09
2.24878e-06
6.57432e-07
2.25337e-06
2.38473e-07
2.27009e-06
4.09405e-07
2.26602e-06
5.01802e-08
2.26406e-06
-1.57703e-07
2.25421e-06
-1.76183e-07
2.25037e-06
-2.63558e-07
2.24063e-06
-2.30747e-07
2.232e-06
-2.39944e-07
2.22323e-06
-1.7399e-07
2.21254e-06
-1.00277e-07
-2.65333e-08
2.20638e-06
2.35246e-06
1.98991e-08
2.34925e-06
-2.1085e-07
2.35703e-06
3.64383e-07
2.36738e-06
1.95644e-07
2.3583e-06
-2.34871e-07
2.34097e-06
-6.23555e-07
2.33548e-06
-1.50221e-07
2.33506e-06
-8.18893e-09
2.35588e-06
6.36604e-07
2.35988e-06
2.34477e-07
2.37771e-06
3.91574e-07
2.37303e-06
5.48568e-08
2.37194e-06
-1.56609e-07
2.36151e-06
-1.65756e-07
2.35756e-06
-2.59609e-07
2.34826e-06
-2.21445e-07
2.33823e-06
-2.29913e-07
2.33067e-06
-1.66427e-07
2.31949e-06
-8.90963e-08
-2.05616e-08
2.31352e-06
2.465e-06
2.12904e-08
2.46168e-06
-2.07523e-07
2.46961e-06
3.56453e-07
2.48e-06
1.85253e-07
2.47104e-06
-2.25913e-07
2.45319e-06
-6.05705e-07
2.4481e-06
-1.45131e-07
2.44669e-06
-6.77752e-09
2.4684e-06
6.14891e-07
2.4717e-06
2.31176e-07
2.49058e-06
3.72696e-07
2.48531e-06
6.01248e-08
2.48487e-06
-1.5617e-07
2.47414e-06
-1.55027e-07
2.46962e-06
-2.55084e-07
2.46114e-06
-2.12965e-07
2.44951e-06
-2.18286e-07
2.44303e-06
-1.59947e-07
2.43197e-06
-7.80378e-08
-1.4363e-08
2.42578e-06
2.58291e-06
2.26742e-08
2.57952e-06
-2.04136e-07
2.58762e-06
3.48355e-07
2.59794e-06
1.74937e-07
2.58916e-06
-2.17132e-07
2.5707e-06
-5.87249e-07
2.56613e-06
-1.40563e-07
2.56383e-06
-4.46987e-09
2.58651e-06
5.92203e-07
2.58909e-06
2.28604e-07
2.6089e-06
3.52886e-07
2.60314e-06
6.5884e-08
2.60307e-06
-1.56099e-07
2.5924e-06
-1.44358e-07
2.58682e-06
-2.49506e-07
2.57946e-06
-2.05608e-07
2.56631e-06
-2.05131e-07
2.56043e-06
-1.54067e-07
2.55016e-06
-6.77762e-08
-7.63919e-09
2.54344e-06
2.70645e-06
2.40556e-08
2.70303e-06
-2.00718e-07
2.71132e-06
3.40059e-07
2.72146e-06
1.648e-07
2.71293e-06
-2.08599e-07
2.69378e-06
-5.681e-07
2.68983e-06
-1.36617e-07
2.68668e-06
-1.31862e-09
2.71039e-06
5.68491e-07
2.71226e-06
2.26736e-07
2.73283e-06
3.3232e-07
2.72677e-06
7.19415e-08
2.72673e-06
-1.56053e-07
2.71653e-06
-1.34161e-07
2.70945e-06
-2.42427e-07
2.70338e-06
-1.99534e-07
2.68903e-06
-1.90783e-07
2.68306e-06
-1.48103e-07
2.6742e-06
-5.891e-08
-3.14014e-10
2.66687e-06
2.83589e-06
2.54336e-08
2.83245e-06
-1.97274e-07
2.84098e-06
3.31523e-07
2.85083e-06
1.54949e-07
2.84264e-06
-2.00405e-07
2.82271e-06
-5.4817e-07
2.81947e-06
-1.33379e-07
2.81551e-06
2.64357e-09
2.84023e-06
5.43772e-07
2.84149e-06
2.25472e-07
2.86256e-06
3.11249e-07
2.85649e-06
7.80169e-08
2.85609e-06
-1.55656e-07
2.84676e-06
-1.24826e-07
2.83786e-06
-2.33525e-07
2.83302e-06
-1.94698e-07
2.81802e-06
-1.75781e-07
2.81129e-06
-1.4138e-07
2.80422e-06
-5.18378e-08
7.45865e-09
2.79645e-06
2.97153e-06
2.68023e-08
2.96805e-06
-1.93792e-07
2.97688e-06
3.22689e-07
2.98633e-06
1.45501e-07
2.97858e-06
-1.92657e-07
2.95779e-06
-5.27382e-07
2.95533e-06
-1.30914e-07
2.9506e-06
7.37348e-09
2.97622e-06
5.18144e-07
2.97706e-06
2.24638e-07
2.99831e-06
2.89992e-07
2.99256e-06
8.37741e-08
2.99145e-06
-1.54546e-07
2.98328e-06
-1.16656e-07
2.97245e-06
-2.22701e-07
2.96855e-06
-1.90794e-07
2.95353e-06
-1.60764e-07
2.94559e-06
-1.3344e-07
2.94035e-06
-4.65927e-08
1.52704e-08
2.93254e-06
3.11366e-06
2.81517e-08
3.1101e-06
-1.9024e-07
3.11931e-06
3.13483e-07
3.12823e-06
1.36583e-07
3.12104e-06
-1.85472e-07
3.09933e-06
-5.05673e-07
3.09768e-06
-1.2926e-07
3.09226e-06
1.27945e-08
3.11862e-06
4.9178e-07
3.11927e-06
2.2399e-07
3.14034e-06
2.68925e-07
3.13525e-06
8.88599e-08
3.13311e-06
-1.52406e-07
3.12628e-06
-1.09828e-07
3.11366e-06
-2.10075e-07
3.11019e-06
-1.87326e-07
3.09578e-06
-1.46352e-07
3.08644e-06
-1.24102e-07
3.08273e-06
-4.2883e-08
2.25795e-08
3.07542e-06
3.26259e-06
2.94677e-08
3.25892e-06
-1.86567e-07
3.26859e-06
3.0381e-07
3.27684e-06
1.28332e-07
3.27034e-06
-1.78971e-07
3.24768e-06
-4.83006e-07
3.24682e-06
-1.28405e-07
3.24084e-06
1.87773e-08
3.26769e-06
4.6493e-07
3.26847e-06
2.23213e-07
3.28892e-06
2.48466e-07
3.28484e-06
9.29421e-08
3.28145e-06
-1.49011e-07
3.27598e-06
-1.04361e-07
3.26185e-06
-1.95944e-07
3.25825e-06
-1.83726e-07
3.24494e-06
-1.33037e-07
3.23428e-06
-1.13446e-07
3.23159e-06
-4.01959e-08
2.88267e-08
3.22535e-06
3.41867e-06
3.07316e-08
3.4148e-06
-1.82699e-07
3.42505e-06
2.93559e-07
3.4325e-06
1.20883e-07
3.42679e-06
-1.73262e-07
3.40317e-06
-4.59387e-07
3.40304e-06
-1.28278e-07
3.39669e-06
2.51284e-08
3.42371e-06
4.3791e-07
3.42497e-06
2.21959e-07
3.44443e-06
2.28999e-07
3.44157e-06
9.58035e-08
3.43684e-06
-1.44279e-07
3.43261e-06
-1.00126e-07
3.41737e-06
-1.80706e-07
3.41311e-06
-1.79468e-07
3.40122e-06
-1.21151e-07
3.3895e-06
-1.0172e-07
3.38726e-06
-3.79558e-08
3.35635e-08
3.38252e-06
3.58222e-06
3.192e-08
3.57807e-06
-1.78543e-07
3.58902e-06
2.82608e-07
3.59555e-06
1.14354e-07
3.5907e-06
-1.68419e-07
3.5662e-06
-4.34885e-07
3.56666e-06
-1.28737e-07
3.5602e-06
3.15865e-08
3.58702e-06
4.1109e-07
3.58911e-06
2.19869e-07
3.60726e-06
2.10853e-07
3.6057e-06
9.73588e-08
3.5997e-06
-1.38274e-07
3.59644e-06
-9.68704e-08
3.58053e-06
-1.64793e-07
3.57523e-06
-1.74164e-07
3.56491e-06
-1.10831e-07
3.55245e-06
-8.92601e-08
3.55012e-06
-3.56273e-08
3.65256e-08
3.54716e-06
3.75362e-06
3.30045e-08
3.74907e-06
-1.73989e-07
3.76084e-06
2.70838e-07
3.76636e-06
1.08829e-07
3.76241e-06
-1.64465e-07
3.73717e-06
-4.09643e-07
3.73799e-06
-1.29563e-07
3.73175e-06
3.78329e-08
3.75797e-06
3.84863e-07
3.76122e-06
2.16623e-07
3.77783e-06
1.9424e-07
3.7775e-06
9.76893e-08
3.77042e-06
-1.3119e-07
3.76782e-06
-9.42767e-08
3.75165e-06
-1.48623e-07
3.74504e-06
-1.67553e-07
3.7363e-06
-1.02091e-07
3.72348e-06
-7.64407e-08
3.72059e-06
-3.27337e-08
3.76479e-08
3.71947e-06
3.93324e-06
3.39542e-08
3.92817e-06
-1.68918e-07
3.94086e-06
2.58146e-07
3.94535e-06
1.04336e-07
3.94224e-06
-1.61357e-07
3.91649e-06
-3.8389e-07
3.9174e-06
-1.30472e-07
3.91172e-06
4.35067e-08
3.93697e-06
3.59621e-07
3.94159e-06
2.11998e-07
3.95661e-06
1.79223e-07
3.9573e-06
9.70003e-08
3.94937e-06
-1.23265e-07
3.94713e-06
-9.20385e-08
3.93107e-06
-1.32556e-07
3.92301e-06
-1.59496e-07
3.91576e-06
-9.48388e-08
3.90301e-06
-6.36922e-08
3.89912e-06
-2.88423e-08
3.70821e-08
3.89968e-06
4.12147e-06
3.47377e-08
4.11577e-06
-1.63216e-07
4.12944e-06
2.44467e-07
4.13294e-06
1.0084e-07
4.13055e-06
-1.58969e-07
4.10459e-06
-3.57929e-07
4.10526e-06
-1.31138e-07
4.10053e-06
4.82384e-08
4.12444e-06
3.35706e-07
4.13051e-06
2.05934e-07
4.14405e-06
1.65678e-07
4.14545e-06
9.56026e-08
4.13692e-06
-1.14732e-07
4.13481e-06
-8.99317e-08
4.11911e-06
-1.16858e-07
4.10958e-06
-1.4997e-07
4.10358e-06
-8.88305e-08
4.09144e-06
-5.15592e-08
4.08622e-06
-2.36235e-08
3.52592e-08
4.08805e-06
4.31871e-06
3.5327e-08
4.31229e-06
-1.56797e-07
4.32697e-06
2.29789e-07
4.32958e-06
9.82306e-08
4.3277e-06
-1.57088e-07
4.30191e-06
-3.32143e-07
4.30199e-06
-1.31212e-07
4.29855e-06
5.16731e-08
4.32089e-06
3.13368e-07
4.32828e-06
1.98548e-07
4.34059e-06
1.53364e-07
4.3424e-06
9.37917e-08
4.3334e-06
-1.05727e-07
4.3313e-06
-8.78358e-08
4.31617e-06
-1.01727e-07
4.30522e-06
-1.39017e-07
4.30013e-06
-8.37432e-08
4.28915e-06
-4.05762e-08
4.28253e-06
-1.70081e-08
3.29205e-08
4.28487e-06
4.5254e-06
3.57011e-08
4.51822e-06
-1.49622e-07
4.53383e-06
2.14179e-07
4.53574e-06
9.6324e-08
4.53408e-06
-1.55425e-07
4.50889e-06
-3.06953e-07
4.50805e-06
-1.30369e-07
4.50619e-06
5.35305e-08
4.52685e-06
2.9271e-07
4.53529e-06
1.90107e-07
4.54666e-06
1.41996e-07
4.54861e-06
9.18369e-08
4.5392e-06
-9.63144e-08
4.53703e-06
-8.56651e-08
4.52263e-06
-8.73341e-08
4.51042e-06
-1.26807e-07
4.50582e-06
-7.91377e-08
4.4964e-06
-3.11586e-08
4.48872e-06
-9.33109e-09
3.10002e-08
4.49064e-06
4.74197e-06
3.58482e-08
4.73407e-06
-1.41723e-07
4.75045e-06
1.97802e-07
4.75191e-06
9.4858e-08
4.75011e-06
-1.53625e-07
4.72596e-06
-2.82804e-07
4.72393e-06
-1.28336e-07
4.72377e-06
5.36928e-08
4.74286e-06
2.73617e-07
4.75197e-06
1.80994e-07
4.76264e-06
1.31325e-07
4.76457e-06
8.99091e-08
4.75474e-06
-8.64816e-08
4.7524e-06
-8.33284e-08
4.73893e-06
-7.38658e-08
4.72568e-06
-1.1355e-07
4.72116e-06
-7.46248e-08
4.71348e-06
-2.34713e-08
4.70539e-06
-1.24186e-09
3.03085e-08
4.70608e-06
4.96888e-06
3.5767e-08
4.96036e-06
-1.33203e-07
4.97724e-06
1.80921e-07
4.9786e-06
9.34991e-08
4.97627e-06
-1.513e-07
4.95359e-06
-2.60115e-07
4.95018e-06
-1.24934e-07
4.9516e-06
5.22756e-08
4.96945e-06
2.5577e-07
4.97884e-06
1.71598e-07
4.98898e-06
1.21187e-07
4.99076e-06
8.81326e-08
4.98048e-06
-7.62006e-08
4.97783e-06
-8.06834e-08
4.96552e-06
-6.15551e-08
4.95148e-06
-9.9512e-08
4.94673e-06
-6.98736e-08
4.9407e-06
-1.74361e-08
4.93292e-06
6.53458e-09
3.11995e-08
4.93203e-06
5.20662e-06
3.54674e-08
5.19763e-06
-1.24221e-07
5.21468e-06
1.63874e-07
5.21632e-06
9.18633e-08
5.21312e-06
-1.48107e-07
5.19217e-06
-2.39158e-07
5.18741e-06
-1.20182e-07
5.19006e-06
4.96275e-08
5.20705e-06
2.3878e-07
5.21643e-06
1.6222e-07
5.22607e-06
1.11546e-07
5.22764e-06
8.65632e-08
5.21685e-06
-6.54131e-08
5.21378e-06
-7.76136e-08
5.20283e-06
-5.05999e-08
5.18836e-06
-8.50427e-08
5.18317e-06
-6.46835e-08
5.17849e-06
-1.27608e-08
5.17156e-06
1.3468e-08
3.34665e-08
5.16929e-06
5.45569e-06
3.49689e-08
5.44645e-06
-1.14981e-07
5.46326e-06
1.4706e-07
5.4656e-06
8.95261e-08
5.46129e-06
-1.43797e-07
5.44208e-06
-2.19952e-07
5.43627e-06
-1.14365e-07
5.43971e-06
4.61803e-08
5.45609e-06
2.224e-07
5.46526e-06
1.53053e-07
5.47432e-06
1.02485e-07
5.47565e-06
8.52302e-08
5.46435e-06
-5.41089e-08
5.46077e-06
-7.40379e-08
5.45138e-06
-4.12082e-08
5.43684e-06
-7.05053e-08
5.43106e-06
-5.89013e-08
5.42743e-06
-9.12759e-09
5.42158e-06
1.93144e-08
3.65498e-08
5.4185e-06
5.71663e-06
3.42979e-08
5.70737e-06
-1.05721e-07
5.72353e-06
1.30904e-07
5.72696e-06
8.6095e-08
5.72148e-06
-1.38324e-07
5.70378e-06
-2.0225e-07
5.6973e-06
-1.07884e-07
5.70116e-06
4.23169e-08
5.71697e-06
2.06597e-07
5.72574e-06
1.44285e-07
5.73406e-06
9.41581e-08
5.7352e-06
8.40883e-08
5.72352e-06
-4.24208e-08
5.71942e-06
-6.99442e-08
5.71173e-06
-3.35108e-08
5.69745e-06
-5.62328e-08
5.69097e-06
-5.24216e-08
5.68815e-06
-6.30514e-09
5.68337e-06
2.40967e-08
3.98542e-08
5.68006e-06
5.99001e-06
3.34826e-08
5.98098e-06
-9.66899e-08
5.9961e-06
1.15782e-07
6.00081e-06
8.13871e-08
5.99445e-06
-1.31964e-07
5.9778e-06
-1.85598e-07
5.97094e-06
-1.01024e-07
5.97496e-06
3.82923e-08
5.98995e-06
1.91602e-07
5.99804e-06
1.36203e-07
6.00549e-06
8.67043e-08
6.00678e-06
8.28032e-08
5.99508e-06
-3.07248e-08
5.99043e-06
-6.52927e-08
5.98441e-06
-2.74967e-08
5.97074e-06
-4.25608e-08
5.96349e-06
-4.51684e-08
5.96129e-06
-4.1062e-09
5.95747e-06
2.79215e-08
4.29845e-08
5.95433e-06
6.27643e-06
3.25438e-08
6.26784e-06
-8.81051e-08
6.28174e-06
1.01883e-07
6.28748e-06
7.56467e-08
6.28085e-06
-1.25328e-07
6.26481e-06
-1.69566e-07
6.25758e-06
-9.37891e-08
6.26149e-06
3.43798e-08
6.27525e-06
1.77845e-07
6.28215e-06
1.29298e-07
6.28898e-06
7.9877e-08
6.29109e-06
8.06978e-08
6.27983e-06
-1.94722e-08
6.2745e-06
-5.99581e-08
6.26997e-06
-2.29719e-08
6.25727e-06
-2.98608e-08
6.24921e-06
-3.71056e-08
6.24744e-06
-2.33601e-09
6.24453e-06
3.08285e-08
4.57943e-08
6.24172e-06
6.57652e-06
3.14925e-08
6.56854e-06
-8.01286e-08
6.58122e-06
8.92021e-08
6.58749e-06
6.93864e-08
6.58119e-06
-1.19034e-07
6.56571e-06
-1.54088e-07
6.55772e-06
-8.57969e-08
6.56119e-06
3.09068e-08
6.57378e-06
1.65257e-07
6.57947e-06
1.23605e-07
6.58583e-06
7.35206e-08
6.58898e-06
7.7548e-08
6.57851e-06
-9.00342e-09
6.57234e-06
-5.37905e-08
6.56896e-06
-1.95918e-08
6.55762e-06
-1.8516e-08
6.54884e-06
-2.83212e-08
6.54717e-06
-6.73738e-10
6.54525e-06
3.27518e-08
4.82582e-08
6.54279e-06
6.89096e-06
3.03263e-08
6.88366e-06
-7.2835e-08
6.89531e-06
7.75599e-08
6.90152e-06
6.31754e-08
6.89591e-06
-1.13423e-07
6.88136e-06
-1.39545e-07
6.87221e-06
-7.66468e-08
6.87509e-06
2.80299e-08
6.88701e-06
1.53337e-07
6.89169e-06
1.18925e-07
6.89721e-06
6.80038e-08
6.9012e-06
7.35579e-08
6.89173e-06
4.66041e-10
6.8847e-06
-4.67621e-08
6.88207e-06
-1.69623e-08
6.87231e-06
-8.75998e-09
6.86308e-06
-1.90885e-08
6.86114e-06
1.26627e-09
6.86023e-06
3.36617e-08
5.0304e-08
6.85819e-06
7.22043e-06
2.90301e-08
7.21378e-06
-6.61828e-08
7.22467e-06
6.66751e-08
7.23039e-06
5.74544e-08
7.22545e-06
-1.08489e-07
7.21242e-06
-1.26515e-07
7.20211e-06
-6.6335e-08
7.2043e-06
2.58394e-08
7.21571e-06
1.41931e-07
7.21946e-06
1.1517e-07
7.22378e-06
6.36879e-08
7.22837e-06
6.89698e-08
7.22008e-06
8.74954e-09
7.21235e-06
-3.90259e-08
7.21e-06
-1.4613e-08
7.20194e-06
-6.99976e-10
7.19265e-06
-9.807e-09
7.19011e-06
3.8149e-09
7.19007e-06
3.37003e-08
5.17372e-08
7.18863e-06
7.56568e-06
2.75785e-08
7.5595e-06
-6.00056e-08
7.56998e-06
5.61918e-08
7.57492e-06
5.25163e-08
7.57037e-06
-1.03938e-07
7.55949e-06
-1.15631e-07
7.54845e-06
-5.52959e-08
7.5496e-06
2.46913e-08
7.56036e-06
1.31164e-07
7.56335e-06
1.12181e-07
7.56633e-06
6.07094e-08
7.57114e-06
6.41553e-08
7.56423e-06
1.56668e-08
7.556e-06
-3.08017e-08
7.55357e-06
-1.21774e-08
7.54712e-06
5.74789e-09
7.53822e-06
-9.09912e-10
7.53493e-06
7.1059e-09
7.5354e-06
3.3228e-08
5.23288e-08
7.53481e-06
7.92745e-06
2.59425e-08
7.92152e-06
-5.40787e-08
7.93195e-06
4.57604e-08
7.93599e-06
4.84757e-08
7.93152e-06
-9.94623e-08
7.92288e-06
-1.06995e-07
7.91213e-06
-4.45493e-08
7.91179e-06
2.50363e-08
7.92135e-06
1.21598e-07
7.92395e-06
1.09582e-07
7.92571e-06
5.89586e-08
7.93036e-06
5.94973e-08
7.92481e-06
2.12229e-08
7.91638e-06
-2.23697e-08
7.91366e-06
-9.45839e-09
7.9086e-06
1.08041e-08
7.90043e-06
7.26042e-09
7.89649e-06
1.10408e-08
7.89703e-06
3.26963e-08
5.19919e-08
7.89736e-06
8.30653e-06
2.40941e-08
8.30063e-06
-4.81796e-08
8.31116e-06
3.52337e-08
8.3144e-06
4.5237e-08
8.3097e-06
-9.47635e-08
8.30297e-06
-1.00272e-07
8.29346e-06
-3.50339e-08
8.29089e-06
2.76066e-08
8.29911e-06
1.13378e-07
8.30197e-06
1.06724e-07
8.30279e-06
5.81327e-08
8.30689e-06
5.53947e-08
8.30256e-06
2.55618e-08
8.29421e-06
-1.40198e-08
8.29111e-06
-6.36068e-09
8.2872e-06
1.47121e-08
8.27996e-06
1.45036e-08
8.27561e-06
1.53865e-08
8.27586e-06
3.24478e-08
5.08825e-08
8.27697e-06
8.70373e-06
2.20283e-08
8.69781e-06
-4.22654e-08
8.70808e-06
2.497e-08
8.71096e-06
4.23583e-08
8.7051e-06
-8.89072e-08
8.70018e-06
-9.53475e-08
8.69104e-06
-2.58961e-08
8.68587e-06
3.27728e-08
8.69426e-06
1.0499e-07
8.69819e-06
1.02794e-07
8.69843e-06
5.78898e-08
8.70165e-06
5.21753e-08
8.69825e-06
2.89681e-08
8.69031e-06
-6.0821e-09
8.68677e-06
-2.82264e-09
8.68378e-06
1.77027e-08
8.67758e-06
2.07014e-08
8.67307e-06
1.99007e-08
8.67289e-06
3.26299e-08
4.93344e-08
8.67443e-06
9.11989e-06
1.97588e-08
9.11404e-06
-3.64187e-08
9.12349e-06
1.55236e-08
9.12628e-06
3.95627e-08
9.11596e-06
-7.85784e-08
9.10912e-06
-8.85073e-08
9.101e-06
-1.77856e-08
9.09852e-06
3.52564e-08
9.1081e-06
9.5412e-08
9.11345e-06
9.74472e-08
9.11346e-06
5.78805e-08
9.11557e-06
5.00645e-08
9.11284e-06
3.16976e-08
9.10547e-06
1.28338e-09
9.10153e-06
1.1184e-09
9.0992e-06
2.0031e-08
9.09412e-06
2.5778e-08
9.08966e-06
2.43629e-08
9.08906e-06
3.32374e-08
4.76762e-08
9.09071e-06
9.55591e-06
1.73099e-08
9.55004e-06
-3.05521e-08
9.55856e-06
7.00596e-09
9.56106e-06
3.70582e-08
9.54747e-06
-6.49849e-08
9.53952e-06
-8.05526e-08
9.53505e-06
-1.33179e-08
9.53317e-06
3.71323e-08
9.54201e-06
8.65793e-08
9.54827e-06
9.11872e-08
9.54848e-06
5.7668e-08
9.54967e-06
4.88719e-08
9.54732e-06
3.40511e-08
9.54061e-06
7.99242e-09
9.53639e-06
5.34064e-09
9.53446e-06
2.19585e-08
9.5305e-06
2.97327e-08
9.52631e-06
2.85594e-08
9.52533e-06
3.42118e-08
4.61336e-08
9.52688e-06
1.00127e-05
1.47401e-08
1.00068e-05
-2.46822e-08
1.00142e-05
-3.76058e-10
1.00173e-05
3.39918e-08
1.00034e-05
-5.11256e-08
9.99456e-06
-7.16854e-08
9.99166e-06
-1.04165e-08
9.98996e-06
3.88261e-08
9.99712e-06
7.94197e-08
1.00036e-05
8.47558e-08
1.00042e-05
5.69957e-08
1.00049e-05
4.8195e-08
1.00028e-05
3.61886e-08
9.99668e-06
1.40723e-08
9.99229e-06
9.73498e-09
9.99057e-06
2.36742e-08
9.98765e-06
3.26584e-08
9.98392e-06
3.22857e-08
9.98267e-06
3.54616e-08
4.4821e-08
9.98398e-06
1.04912e-05
1.21441e-08
1.04856e-05
-1.90164e-08
1.04915e-05
-6.31522e-09
1.04958e-05
2.96787e-08
1.04822e-05
-3.75048e-08
1.04721e-05
-6.16117e-08
1.04702e-05
-8.45766e-09
1.04691e-05
3.98768e-08
1.04746e-05
7.39435e-08
1.04805e-05
7.88859e-08
1.04816e-05
5.58351e-08
1.04821e-05
4.76748e-08
1.04802e-05
3.81361e-08
1.04747e-05
1.95678e-08
1.04703e-05
1.41716e-08
1.04686e-05
2.5343e-08
1.04665e-05
3.47057e-08
1.04634e-05
3.53995e-08
1.0462e-05
3.68649e-08
4.3776e-08
1.04631e-05
1.09925e-05
9.62663e-09
1.09873e-05
-1.37426e-08
1.09916e-05
-1.06802e-08
1.09971e-05
2.42323e-08
1.09843e-05
-2.47656e-08
1.09731e-05
-5.03406e-08
1.09714e-05
-6.74797e-09
1.09713e-05
3.99628e-08
1.09755e-05
6.97574e-08
1.09803e-05
7.39905e-08
1.09818e-05
5.44162e-08
1.09823e-05
4.71739e-08
1.09806e-05
3.9766e-08
1.09757e-05
2.44907e-08
1.09714e-05
1.85179e-08
1.09696e-05
2.70861e-08
1.09683e-05
3.60729e-08
1.09658e-05
3.7815e-08
1.09644e-05
3.82831e-08
4.29936e-08
1.09652e-05
1.15177e-05
7.31257e-09
1.15131e-05
-9.11875e-09
1.15156e-05
-1.32097e-08
1.15218e-05
1.79737e-08
1.15107e-05
-1.36017e-08
1.14984e-05
-3.80886e-08
1.14963e-05
-4.62845e-09
1.14972e-05
3.90552e-08
1.15007e-05
6.62775e-08
1.15045e-05
7.01688e-08
1.15058e-05
5.31325e-08
1.15064e-05
4.6581e-08
1.15051e-05
4.10366e-08
1.15008e-05
2.87848e-08
1.14967e-05
2.26699e-08
1.14948e-05
2.89479e-08
1.14939e-05
3.70022e-08
1.14922e-05
3.94977e-08
1.14909e-05
3.95734e-08
4.24574e-08
1.14914e-05
1.20678e-05
5.33131e-09
1.2064e-05
-5.30397e-09
1.20646e-05
-1.38123e-08
1.20711e-05
1.1458e-08
1.20621e-05
-4.5517e-09
1.20493e-05
-2.53763e-08
1.20463e-05
-1.60492e-09
1.2048e-05
3.7417e-08
1.20513e-05
6.29359e-08
1.20542e-05
6.72845e-08
1.2055e-05
5.22728e-08
1.20556e-05
4.59898e-08
1.20547e-05
4.19461e-08
1.20511e-05
3.23873e-08
1.20473e-05
2.65231e-08
1.20453e-05
3.08685e-08
1.20446e-05
3.77218e-08
1.20436e-05
4.05215e-08
1.20426e-05
4.05665e-08
4.21449e-08
1.20429e-05
1.26441e-05
3.80273e-09
1.26412e-05
-2.3569e-09
1.26399e-05
-1.24967e-08
1.26459e-05
5.44536e-09
1.26394e-05
1.93688e-09
1.2627e-05
-1.29568e-08
1.26228e-05
2.54251e-09
1.26247e-05
3.55472e-08
1.26282e-05
5.93825e-08
1.26305e-05
6.50276e-08
1.26308e-05
5.19207e-08
1.26312e-05
4.56134e-08
1.26306e-05
4.25211e-08
1.26278e-05
3.52632e-08
1.26243e-05
2.99671e-08
1.26224e-05
3.27761e-08
1.26218e-05
3.83446e-08
1.26212e-05
4.10811e-08
1.26207e-05
4.11177e-08
4.19706e-08
1.26209e-05
1.32479e-05
2.81702e-09
1.32458e-05
-2.76002e-10
1.32428e-05
-9.41728e-09
1.32475e-05
7.08952e-10
1.32438e-05
5.65827e-09
1.32324e-05
-1.62313e-09
1.32272e-05
7.78126e-09
1.32287e-05
3.40101e-08
1.32325e-05
5.55821e-08
1.32346e-05
6.29212e-08
1.32345e-05
5.20438e-08
1.32345e-05
4.56009e-08
1.32342e-05
4.2882e-08
1.32319e-05
3.7493e-08
1.3229e-05
3.28771e-08
1.32272e-05
3.45918e-08
1.32267e-05
3.8876e-08
1.32264e-05
4.13781e-08
1.32263e-05
4.12258e-08
4.17375e-08
1.32265e-05
1.38806e-05
2.40185e-09
1.38794e-05
9.39506e-10
1.3875e-05
-5.07361e-09
1.38779e-05
-2.12408e-09
1.38765e-05
7.03104e-09
1.38669e-05
7.90814e-09
1.38609e-05
1.38387e-08
1.38616e-05
3.3317e-08
1.38654e-05
5.17188e-08
1.38677e-05
6.06259e-08
1.38673e-05
5.24405e-08
1.3867e-05
4.597e-08
1.38667e-05
4.31887e-08
1.3865e-05
3.92096e-08
1.38626e-05
3.51935e-08
1.3861e-05
3.62044e-08
1.38606e-05
3.93005e-08
1.38605e-05
4.14999e-08
1.38606e-05
4.10573e-08
4.12436e-08
1.38611e-05
1.45436e-05
2.51429e-09
1.45429e-05
1.56396e-09
1.45381e-05
-2.67768e-10
1.45388e-05
-2.84701e-09
1.45389e-05
6.94351e-09
1.45316e-05
1.52028e-08
1.45252e-05
2.02456e-08
1.45248e-05
3.37334e-08
1.45284e-05
4.81503e-08
1.4531e-05
5.80338e-08
1.45307e-05
5.27564e-08
1.45299e-05
4.67036e-08
1.45296e-05
4.35522e-08
1.45283e-05
4.05051e-08
1.45264e-05
3.70172e-08
1.45252e-05
3.74918e-08
1.45249e-05
3.95926e-08
1.45249e-05
4.14271e-08
1.45252e-05
4.07846e-08
4.04524e-08
1.4526e-05
1.52384e-05
3.0423e-09
1.52382e-05
1.74705e-09
1.52336e-05
4.35189e-09
1.52322e-05
-1.46921e-09
1.52327e-05
6.38952e-09
1.52277e-05
2.0207e-08
1.52216e-05
2.63795e-08
1.522e-05
3.52797e-08
1.52229e-05
4.53219e-08
1.52257e-05
5.52038e-08
1.52258e-05
5.26881e-08
1.52248e-05
4.76643e-08
1.52243e-05
4.40374e-08
1.52234e-05
4.14733e-08
1.52219e-05
3.8436e-08
1.5221e-05
3.84534e-08
1.52209e-05
3.97089e-08
1.52212e-05
4.11212e-08
1.52215e-05
4.04495e-08
3.95083e-08
1.52224e-05
1.59665e-05
3.84766e-09
1.59666e-05
1.69773e-09
1.59626e-05
8.35056e-09
1.59595e-05
1.65073e-09
1.59596e-05
6.29135e-09
1.59566e-05
2.315e-08
1.59513e-05
3.1682e-08
1.59488e-05
3.77397e-08
1.59506e-05
4.35571e-08
1.59534e-05
5.23691e-08
1.5954e-05
5.21374e-08
1.59531e-05
4.85487e-08
1.59525e-05
4.46804e-08
1.59517e-05
4.22288e-08
1.59507e-05
3.94456e-08
1.595e-05
3.91626e-08
1.59501e-05
3.96532e-08
1.59506e-05
4.05615e-08
1.59511e-05
3.99822e-08
3.85619e-08
1.5952e-05
1.67297e-05
4.78927e-09
1.67296e-05
1.77412e-09
1.67265e-05
1.14163e-08
1.67223e-05
5.88866e-09
1.67213e-05
7.28287e-09
1.67198e-05
2.45936e-08
1.67158e-05
3.57563e-08
1.67128e-05
4.07155e-08
1.67134e-05
4.29402e-08
1.67159e-05
4.98962e-08
1.67169e-05
5.11645e-08
1.67163e-05
4.90963e-08
1.67156e-05
4.53955e-08
1.67149e-05
4.28768e-08
1.67143e-05
4.01003e-08
1.67139e-05
3.95944e-08
1.6714e-05
3.94976e-08
1.67148e-05
3.97771e-08
1.67155e-05
3.92849e-08
3.76484e-08
1.67164e-05
1.75294e-05
5.7226e-09
1.75291e-05
2.13131e-09
1.75269e-05
1.35816e-08
1.75222e-05
1.05985e-08
1.75199e-05
9.61408e-09
1.75192e-05
2.52942e-08
1.75164e-05
3.84841e-08
1.75134e-05
4.37043e-08
1.7513e-05
4.33625e-08
1.75148e-05
4.812e-08
1.75161e-05
4.99032e-08
1.75159e-05
4.92603e-08
1.75153e-05
4.59573e-08
1.75147e-05
4.34635e-08
1.75143e-05
4.05381e-08
1.75142e-05
3.96817e-08
1.75145e-05
3.92554e-08
1.75154e-05
3.88885e-08
1.75163e-05
3.82973e-08
3.67131e-08
1.75173e-05
1.83675e-05
6.55272e-09
1.83667e-05
2.91614e-09
1.83653e-05
1.50378e-08
1.83607e-05
1.5183e-08
1.83572e-05
1.30987e-08
1.83565e-05
2.60056e-08
1.83549e-05
4.0048e-08
1.83524e-05
4.62368e-08
1.83512e-05
4.45854e-08
1.83521e-05
4.71933e-08
1.83534e-05
4.86146e-08
1.83536e-05
4.90696e-08
1.83533e-05
4.62478e-08
1.83529e-05
4.389e-08
1.83525e-05
4.08618e-08
1.83527e-05
3.95013e-08
1.83532e-05
3.88054e-08
1.8354e-05
3.80103e-08
1.83553e-05
3.70648e-08
3.56515e-08
1.83563e-05
1.92457e-05
7.23543e-09
1.92445e-05
4.14769e-09
1.92435e-05
1.60609e-08