/*--------------------------------*- C++ -*----------------------------------*\
| =========                 |                                                 |
| \\      /  F ield         | OpenFOAM: The Open Source CFD Toolbox           |
|  \\    /   O peration     | Version:  3.0.1                                 |
|   \\  /    A nd           | Web:      www.OpenFOAM.org                      |
|    \\/     M anipulation  |                                                 |
\*---------------------------------------------------------------------------*/
FoamFile
{
    version     2.0;
    format      ascii;
    class       volVectorField;
    location    "2.2";
    object      U;
}
// * * * * * * * * * * * * * * * * * * * * * * * * * * * * * * * * * * * * * //

dimensions      [0 1 -1 0 0 0 0];

internalField   nonuniform List<vector> 
9600
(
(0.862393 -3.78681e-05 0)
(1.13329 -0.0020226 0)
(0.889878 0.0045764 0)
(1.11542 0.000988745 0)
(0.817515 -0.0042141 0)
(1.12381 -0.0066364 0)
(0.948011 -0.00241663 0)
(1.09556 -0.0024535 0)
(0.907278 0.015351 0)
(1.10594 0.00244622 0)
(0.83584 0.0112846 0)
(1.10443 0.00131095 0)
(0.822215 -0.00666279 0)
(1.10096 -0.00500179 0)
(0.851261 -0.0110358 0)
(1.09341 -0.0079341 0)
(0.874066 -0.0116824 0)
(1.1047 -0.00779034 0)
(0.875896 -0.00842215 0)
(1.11569 -0.00762476 0)
(0.872159 -8.66717e-05 0)
(1.12238 -0.00206063 0)
(0.899227 0.00450029 0)
(1.10178 0.00197065 0)
(0.837606 -0.00444609 0)
(1.10677 -0.00783844 0)
(0.957031 -0.00232447 0)
(1.08416 -0.00164827 0)
(0.919335 0.0149277 0)
(1.08434 0.00393704 0)
(0.864445 0.0111041 0)
(1.06513 0.00197632 0)
(0.87681 -0.00678795 0)
(1.04923 -0.00550254 0)
(0.916561 -0.0108826 0)
(1.03228 -0.00859578 0)
(0.951329 -0.0117274 0)
(1.02415 -0.00845305 0)
(0.978439 -0.00785839 0)
(1.00175 -0.008293 0)
(0.890673 -0.000115191 0)
(1.1021 -0.00212193 0)
(0.917124 0.00456354 0)
(1.0792 0.00252733 0)
(0.870982 -0.00471167 0)
(1.07872 -0.00880259 0)
(0.973565 -0.00223756 0)
(1.06375 -0.00115747 0)
(0.941259 0.014814 0)
(1.05389 0.00471417 0)
(0.906711 0.0111166 0)
(1.025 0.00181307 0)
(0.933282 -0.00664869 0)
(1.00548 -0.0061785 0)
(0.963532 -0.0105782 0)
(0.996157 -0.00936944 0)
(0.983825 -0.0115358 0)
(0.997197 -0.0091327 0)
(0.99514 -0.00741668 0)
(0.992054 -0.00714456 0)
(0.914759 -0.000113374 0)
(1.07636 -0.00219984 0)
(0.939229 0.00465906 0)
(1.05373 0.00292896 0)
(0.908818 -0.00480087 0)
(1.04775 -0.00961155 0)
(0.990813 -0.00220186 0)
(1.04222 -0.000725086 0)
(0.963711 0.0149294 0)
(1.02823 0.00514593 0)
(0.943982 0.0114135 0)
(1.00292 0.00146157 0)
(0.968567 -0.00633855 0)
(0.988304 -0.00667476 0)
(0.982171 -0.0104376 0)
(0.989207 -0.00976108 0)
(0.98949 -0.011586 0)
(0.99535 -0.00944492 0)
(0.994576 -0.00719281 0)
(0.994613 -0.00639552 0)
(0.939995 -8.58296e-05 0)
(1.05044 -0.00229304 0)
(0.960406 0.00476225 0)
(1.03136 0.00320095 0)
(0.94257 -0.00478265 0)
(1.02188 -0.0102915 0)
(1.00219 -0.00225979 0)
(1.02577 -0.000364301 0)
(0.980402 0.0150919 0)
(1.01329 0.00542491 0)
(0.969136 0.0116659 0)
(0.997465 0.00118663 0)
(0.986241 -0.00608144 0)
(0.98736 -0.00692711 0)
(0.988532 -0.010388 0)
(0.990691 -0.010004 0)
(0.991067 -0.0115911 0)
(0.994686 -0.00970271 0)
(0.995424 -0.00698218 0)
(0.994169 -0.00588263 0)
(0.962254 -4.29009e-05 0)
(1.02887 -0.00238188 0)
(0.977003 0.00486249 0)
(1.01579 0.00335422 0)
(0.967782 -0.00470702 0)
(1.00507 -0.0107894 0)
(1.00585 -0.00239433 0)
(1.01526 -7.32419e-05 0)
(0.990644 0.015233 0)
(1.00756 0.00560041 0)
(0.984239 0.0117691 0)
(0.999902 0.00102193 0)
(0.995482 -0.00587918 0)
(0.991124 -0.00701081 0)
(0.992087 -0.0103197 0)
(0.992277 -0.0101793 0)
(0.992297 -0.0115037 0)
(0.993311 -0.0099195 0)
(0.995079 -0.00686489 0)
(0.993164 -0.00538375 0)
(0.979042 3.37537e-06 0)
(1.01386 -0.00244638 0)
(0.987885 0.00493114 0)
(1.00737 0.00341847 0)
(0.984374 -0.00459465 0)
(0.996698 -0.0110854 0)
(1.00404 -0.00257389 0)
(1.00832 0.000119781 0)
(0.996349 0.0153043 0)
(1.00676 0.00570233 0)
(0.993438 0.011765 0)
(1.00415 0.000926632 0)
(1.00136 -0.00566923 0)
(0.995168 -0.0070002 0)
(0.99503 -0.010196 0)
(0.993556 -0.0102615 0)
(0.992866 -0.0113941 0)
(0.992165 -0.0100309 0)
(0.993339 -0.00681649 0)
(0.991651 -0.00486635 0)
(0.989933 4.35892e-05 0)
(1.00505 -0.00248068 0)
(0.993955 0.00495301 0)
(1.00409 0.00342386 0)
(0.994464 -0.0044615 0)
(0.99391 -0.0112068 0)
(1.00013 -0.00275313 0)
(1.00275 0.000206178 0)
(0.999256 0.0152761 0)
(1.00738 0.00574857 0)
(0.999391 0.0116897 0)
(1.00783 0.000880391 0)
(1.00548 -0.00544259 0)
(0.998601 -0.00693845 0)
(0.997535 -0.0100089 0)
(0.99491 -0.0102505 0)
(0.993179 -0.0112661 0)
(0.991318 -0.010002 0)
(0.991328 -0.00677059 0)
(0.989649 -0.00436914 0)
(0.996032 7.42828e-05 0)
(1.00063 -0.00248983 0)
(0.996899 0.00493372 0)
(1.00345 0.00338537 0)
(1.00034 -0.00432052 0)
(0.993909 -0.011193 0)
(0.996459 -0.00288871 0)
(0.997858 0.000203679 0)
(1.00034 0.0151475 0)
(1.00769 0.00574523 0)
(1.0032 0.0115573 0)
(1.01039 0.000872468 0)
(1.00826 -0.00522132 0)
(1.00127 -0.00682791 0)
(0.999568 -0.00978543 0)
(0.996274 -0.0101583 0)
(0.993609 -0.0110945 0)
(0.990788 -0.00982965 0)
(0.989649 -0.00670509 0)
(0.987633 -0.00390033 0)
(0.998997 9.7233e-05 0)
(0.998708 -0.00248256 0)
(0.998165 0.00488505 0)
(1.0037 0.00331435 0)
(1.00364 -0.00417771 0)
(0.994897 -0.0110831 0)
(0.993947 -0.00295472 0)
(0.99386 0.000145442 0)
(1.00024 0.014934 0)
(1.00735 0.00569698 0)
(1.00533 0.011372 0)
(1.01186 0.000889914 0)
(1.00993 -0.00501658 0)
(1.00312 -0.00667125 0)
(1.00109 -0.00956288 0)
(0.997465 -0.00998244 0)
(0.994184 -0.0108814 0)
(0.990603 -0.00954808 0)
(0.988495 -0.0065976 0)
(0.986003 -0.00343627 0)
(1.00027 0.00011588 0)
(0.997973 -0.00246617 0)
(0.998626 0.00481742 0)
(1.00402 0.00322067 0)
(1.00539 -0.00403665 0)
(0.996002 -0.0109109 0)
(0.992603 -0.00295379 0)
(0.991044 6.40283e-05 0)
(0.999507 0.0146551 0)
(1.00662 0.00561397 0)
(1.0062 0.0111353 0)
(1.01244 0.000925495 0)
(1.01071 -0.00483384 0)
(1.00421 -0.00648302 0)
(1.00209 -0.00935444 0)
(0.998363 -0.00973217 0)
(0.994786 -0.010652 0)
(0.990703 -0.00919509 0)
(0.987878 -0.00641215 0)
(0.984944 -0.0029758 0)
(1.00077 0.00013267 0)
(0.997741 -0.00244457 0)
(0.998713 0.00473884 0)
(1.00418 0.00311157 0)
(1.00621 -0.00389919 0)
(0.996896 -0.0107 0)
(0.992104 -0.00290823 0)
(0.989406 -1.83947e-05 0)
(0.998575 0.0143304 0)
(1.00584 0.00550878 0)
(1.00625 0.0108534 0)
(1.0124 0.000977107 0)
(1.01091 -0.00467821 0)
(1.00469 -0.0062687 0)
(1.00266 -0.00916938 0)
(0.998938 -0.00942911 0)
(0.995312 -0.0104161 0)
(0.990976 -0.0087862 0)
(0.987711 -0.00614717 0)
(0.984469 -0.00253539 0)
(1.00096 0.00014862 0)
(0.997716 -0.00241905 0)
(0.998641 0.0046543 0)
(1.00419 0.00299196 0)
(1.00651 -0.0037651 0)
(0.99752 -0.0104669 0)
(0.992105 -0.00283284 0)
(0.988685 -8.68858e-05 0)
(0.997708 0.0139761 0)
(1.00515 0.00539473 0)
(1.00586 0.0105333 0)
(1.01198 0.00104494 0)
(1.01078 -0.00455662 0)
(1.00474 -0.00602302 0)
(1.00291 -0.009014 0)
(0.999236 -0.00909783 0)
(0.995711 -0.0101639 0)
(0.991318 -0.0083416 0)
(0.987854 -0.00579975 0)
(0.984477 -0.00216358 0)
(1.00105 0.000163977 0)
(0.997768 -0.00238999 0)
(0.998533 0.0045663 0)
(1.00409 0.00286523 0)
(1.00655 -0.00363321 0)
(0.997911 -0.010221 0)
(0.992347 -0.00274228 0)
(0.988543 -0.000134223 0)
(0.997023 0.0136016 0)
(1.00459 0.0052824 0)
(1.00533 0.010181 0)
(1.01138 0.00112664 0)
(1.01053 -0.00446534 0)
(1.00458 -0.00575181 0)
(1.00296 -0.00887842 0)
(0.999346 -0.00875317 0)
(0.995984 -0.00988924 0)
(0.991661 -0.00791079 0)
(0.988166 -0.00536751 0)
(0.984818 -0.00181777 0)
(1.0011 0.000178713 0)
(0.997838 -0.00235785 0)
(0.998459 0.00447613 0)
(1.00394 0.00273381 0)
(1.00645 -0.00350284 0)
(0.998138 -0.00996659 0)
(0.992673 -0.00264634 0)
(0.988703 -0.000159038 0)
(0.996555 0.013213 0)
(1.00414 0.0051779 0)
(1.00483 0.00979982 0)
(1.01073 0.00122364 0)
(1.01025 -0.00440047 0)
(1.00432 -0.0054588 0)
(1.00292 -0.00875996 0)
(0.999354 -0.00839386 0)
(0.996159 -0.0095789 0)
(0.99198 -0.00753894 0)
(0.988553 -0.00486845 0)
(0.985343 -0.00149644 0)
(1.00114 0.00019299 0)
(0.9979 -0.00232348 0)
(0.998443 0.00438439 0)
(1.00377 0.00259974 0)
(1.00631 -0.00337383 0)
(0.998261 -0.00970491 0)
(0.993003 -0.00255146 0)
(0.988989 -0.000161765 0)
(0.996291 0.0128096 0)
(1.00379 0.00508655 0)
(1.00445 0.00939116 0)
(1.01011 0.00133862 0)
(1.00999 -0.00436451 0)
(1.00406 -0.00514539 0)
(1.00283 -0.0086434 0)
(0.999324 -0.00804615 0)
(0.996272 -0.00920555 0)
(0.992274 -0.00722378 0)
(0.988957 -0.00434556 0)
(0.98594 -0.00120527 0)
(1.00117 0.000207015 0)
(0.997953 -0.00228756 0)
(0.998477 0.0042909 0)
(1.00359 0.00246476 0)
(1.00614 -0.00324618 0)
(0.998329 -0.00943587 0)
(0.993309 -0.00246195 0)
(0.989318 -0.000144254 0)
(0.996193 0.0123889 0)
(1.00353 0.00501027 0)
(1.00418 0.00895735 0)
(1.00955 0.00147195 0)
(1.00977 -0.00435219 0)
(1.00382 -0.00481691 0)
(1.00272 -0.00851408 0)
(0.999293 -0.00772788 0)
(0.996353 -0.00876467 0)
(0.992555 -0.006951 0)
(0.989363 -0.00382095 0)
(0.986548 -0.000893228 0)
(1.00118 0.00022093 0)
(0.998006 -0.00225085 0)
(0.99854 0.00419582 0)
(1.00343 0.00232968 0)
(1.00595 -0.00312026 0)
(0.998375 -0.009158 0)
(0.993585 -0.00238032 0)
(0.989659 -0.000110267 0)
(0.996207 0.0119483 0)
(1.00334 0.00495107 0)
(1.00399 0.00849972 0)
(1.00905 0.0016168 0)
(1.00956 -0.00435298 0)
(1.00363 -0.00448405 0)
(1.00261 -0.0083535 0)
(0.999279 -0.00745586 0)
(0.99642 -0.00825826 0)
(0.992835 -0.00670336 0)
(0.989769 -0.00331839 0)
(0.98714 -0.000562583 0)
(1.00117 0.000234856 0)
(0.998071 -0.00221387 0)
(0.998607 0.00409876 0)
(1.00328 0.00219696 0)
(1.00575 -0.00299754 0)
(0.99842 -0.00886959 0)
(0.993834 -0.00230914 0)
(0.99001 -6.01616e-05 0)
(0.996283 0.0114861 0)
(1.00321 0.00490663 0)
(1.00385 0.00802174 0)
(1.00859 0.0017673 0)
(1.00935 -0.00435797 0)
(1.00345 -0.00416747 0)
(1.00249 -0.00813807 0)
(0.999291 -0.00723777 0)
(0.996479 -0.00769695 0)
(0.993123 -0.00645876 0)
(0.990181 -0.00288081 0)
(0.987709 -0.000195479 0)
(1.00112 0.00024874 0)
(0.998156 -0.00217655 0)
(0.998663 0.0039989 0)
(1.00317 0.00206714 0)
(1.00552 -0.00287916 0)
(0.998474 -0.00857061 0)
(0.994059 -0.00224966 0)
(0.990374 6.23878e-06 0)
(0.996382 0.0110034 0)
(1.00311 0.00487465 0)
(1.00372 0.0075305 0)
(1.00817 0.00192965 0)
(1.00914 -0.00435574 0)
(1.00331 -0.00387582 0)
(1.00235 -0.00785949 0)
(0.999331 -0.00706629 0)
(0.996535 -0.00710668 0)
(0.99342 -0.00619294 0)
(0.990606 -0.00252155 0)
(0.988261 0.000213887 0)
(1.00105 0.000262573 0)
(0.998266 -0.00213911 0)
(0.9987 0.00389632 0)
(1.00308 0.00194069 0)
(1.00527 -0.00276595 0)
(0.998541 -0.00825857 0)
(0.994263 -0.00220284 0)
(0.990756 8.89199e-05 0)
(0.996483 0.0104998 0)
(1.00304 0.0048571 0)
(1.00359 0.00703037 0)
(1.00776 0.00208655 0)
(1.00891 -0.00433318 0)
(1.00318 -0.00361815 0)
(1.00219 -0.00751805 0)
(0.9994 -0.00692744 0)
(0.996591 -0.00651624 0)
(0.993723 -0.00587991 0)
(0.991048 -0.00224391 0)
(0.9888 0.00063327 0)
(1.00095 0.000276462 0)
(0.998397 -0.0021014 0)
(0.998716 0.0037898 0)
(1.00301 0.00182233 0)
(1.00501 -0.00265979 0)
(0.998619 -0.00793018 0)
(0.994451 -0.00217112 0)
(0.991156 0.000185658 0)
(0.996576 0.00998078 0)
(1.00298 0.0048437 0)
(1.00345 0.00652796 0)
(1.00737 0.0022193 0)
(1.00867 -0.00428514 0)
(1.00308 -0.00340242 0)
(1.00202 -0.00711548 0)
(0.999493 -0.00680238 0)
(0.996652 -0.00594647 0)
(0.994025 -0.00550094 0)
(0.991506 -0.00204946 0)
(0.989336 0.0010295 0)
(1.00084 0.000289937 0)
(0.998541 -0.00206232 0)
(0.998719 0.00367812 0)
(1.00295 0.0017104 0)
(1.00474 -0.00256379 0)
(0.998705 -0.00758722 0)
(0.994626 -0.00215191 0)
(0.991569 0.000292361 0)
(0.996661 0.00945069 0)
(1.00293 0.00482905 0)
(1.00331 0.0060364 0)
(1.00699 0.00233302 0)
(1.00841 -0.00420019 0)
(1.003 -0.00322497 0)
(1.00182 -0.00666363 0)
(0.999606 -0.00667794 0)
(0.996727 -0.00541491 0)
(0.994319 -0.0050623 0)
(0.991976 -0.00191328 0)
(0.989875 0.00137836 0)
(1.00073 0.000302957 0)
(0.998688 -0.00202143 0)
(0.998715 0.00355993 0)
(1.0029 0.00160697 0)
(1.00447 -0.00247937 0)
(0.998793 -0.00723008 0)
(0.994797 -0.00214584 0)
(0.991987 0.000408469 0)
(0.996741 0.00891291 0)
(1.00288 0.00481103 0)
(1.00317 0.00557053 0)
(1.00661 0.00241572 0)
(1.00813 -0.00407622 0)
(1.00293 -0.00308744 0)
(1.00162 -0.00617809 0)
(0.999731 -0.00653811 0)
(0.996824 -0.00493521 0)
(0.9946 -0.00457432 0)
(0.992453 -0.00180694 0)
(0.990424 0.0016559 0)
(1.00062 0.000315587 0)
(0.998829 -0.00197816 0)
(0.998714 0.00343404 0)
(1.00284 0.00151697 0)
(1.00421 -0.00240742 0)
(0.998878 -0.0068575 0)
(0.994971 -0.00215196 0)
(0.992401 0.00052899 0)
(0.996824 0.0083768 0)
(1.00282 0.00477688 0)
(1.00303 0.00513822 0)
(1.00624 0.00246764 0)
(1.00785 -0.00391859 0)
(1.00288 -0.00298211 0)
(1.00141 -0.00566654 0)
(0.999861 -0.00636513 0)
(0.996951 -0.00450905 0)
(0.994865 -0.00404869 0)
(0.992932 -0.00170573 0)
(0.990988 0.00184773 0)
(1.00053 0.000327051 0)
(0.998957 -0.00193087 0)
(0.998723 0.00329904 0)
(1.00276 0.00144081 0)
(1.00397 -0.00234694 0)
(0.998956 -0.00647514 0)
(0.995156 -0.00216302 0)
(0.992806 0.000645937 0)
(0.996913 0.0078511 0)
(1.00275 0.00471567 0)
(1.0029 0.00473548 0)
(1.00587 0.00248741 0)
(1.00757 -0.00373281 0)
(1.00284 -0.00289543 0)
(1.00121 -0.00514413 0)
(0.999987 -0.00615081 0)
(0.997117 -0.00413846 0)
(0.995115 -0.00350069 0)
(0.993406 -0.00158943 0)
(0.991569 0.00194977 0)
(1.00045 0.00033737 0)
(0.999069 -0.00187853 0)
(0.998746 0.00315259 0)
(1.00267 0.00137919 0)
(1.00375 -0.00229984 0)
(0.999027 -0.00608177 0)
(0.995354 -0.00217864 0)
(0.993198 0.000756554 0)
(0.997011 0.00734174 0)
(1.00267 0.00462634 0)
(1.00278 0.00436925 0)
(1.00549 0.00248209 0)
(1.00728 -0.00352225 0)
(1.00281 -0.00281989 0)
(1.00101 -0.00461781 0)
(1.0001 -0.00589287 0)
(0.997323 -0.00382703 0)
(0.995354 -0.00294667 0)
(0.993866 -0.0014425 0)
(0.992171 0.00195342 0)
(1.0004 0.000346187 0)
(0.999168 -0.00181992 0)
(0.998783 0.00299449 0)
(1.00255 0.00132883 0)
(1.00354 -0.00226273 0)
(0.999088 -0.00568189 0)
(0.995567 -0.00219734 0)
(0.993578 0.000852291 0)
(0.997121 0.00686056 0)
(1.00257 0.00450796 0)
(1.00266 0.00404119 0)
(1.00512 0.00245243 0)
(1.00699 -0.00329809 0)
(1.00278 -0.00275012 0)
(1.00083 -0.00409517 0)
(1.0002 -0.00557804 0)
(0.997569 -0.00357548 0)
(0.995587 -0.00240908 0)
(0.994301 -0.00123268 0)
(0.992792 0.00187155 0)
(1.00036 0.00035319 0)
(0.999256 -0.00175378 0)
(0.998833 0.00282351 0)
(1.00243 0.00129052 0)
(1.00335 -0.00223462 0)
(0.999141 -0.00528286 0)
(0.995793 -0.00220417 0)
(0.993949 0.000921892 0)
(0.99724 0.00641216 0)
(1.00246 0.00435684 0)
(1.00255 0.00374067 0)
(1.00475 0.00241002 0)
(1.00669 -0.00306226 0)
(1.00276 -0.00268718 0)
(1.00065 -0.00358304 0)
(1.00027 -0.00520394 0)
(0.997849 -0.00336964 0)
(0.995828 -0.00191083 0)
(0.994702 -0.000952116 0)
(0.993422 0.00173075 0)
(1.00033 0.000358004 0)
(0.999336 -0.00167856 0)
(0.998893 0.00264009 0)
(1.00229 0.00126251 0)
(1.00317 -0.00221424 0)
(0.999187 -0.00488746 0)
(0.996028 -0.00219572 0)
(0.994313 0.000961562 0)
(0.997367 0.00599193 0)
(1.00234 0.00418171 0)
(1.00245 0.0034648 0)
(1.00439 0.0023634 0)
(1.00639 -0.00281249 0)
(1.00274 -0.00262492 0)
(1.0005 -0.00309213 0)
(1.00032 -0.00477962 0)
(0.998154 -0.00318717 0)
(0.996086 -0.00147834 0)
(0.995062 -0.000612488 0)
(0.994042 0.00157908 0)
(1.0003 0.000360891 0)
(0.999411 -0.00159545 0)
(0.99896 0.0024475 0)
(1.00215 0.00124234 0)
(1.00299 -0.00219034 0)
(0.999225 -0.00450975 0)
(0.996265 -0.0021679 0)
(0.994672 0.000971852 0)
(0.9975 0.0056025 0)
(1.00223 0.00399405 0)
(1.00236 0.00320505 0)
(1.00404 0.00231312 0)
(1.00609 -0.00255235 0)
(1.00274 -0.00256045 0)
(1.00036 -0.00263356 0)
(1.00033 -0.00431263 0)
(0.998472 -0.0030101 0)
(0.996371 -0.00112669 0)
(0.995384 -0.000238824 0)
(0.994631 0.00148331 0)
(1.00027 0.000360966 0)
(0.999482 -0.00150437 0)
(0.999031 0.00224783 0)
(1.00202 0.00122464 0)
(1.00282 -0.00215989 0)
(0.999259 -0.00415455 0)
(0.996501 -0.00211862 0)
(0.995028 0.000957939 0)
(0.997635 0.00523616 0)
(1.00212 0.00379362 0)
(1.00227 0.00296122 0)
(1.00371 0.00227248 0)
(1.00579 -0.00227785 0)
(1.00275 -0.00249119 0)
(1.00025 -0.00220755 0)
(1.00032 -0.00381583 0)
(0.998789 -0.00283255 0)
(0.996684 -0.000848082 0)
(0.995679 0.000150134 0)
(0.995165 0.0014883 0)
(1.00025 0.000358518 0)
(0.999548 -0.0014064 0)
(0.999106 0.00204307 0)
(1.00188 0.00120694 0)
(1.00265 -0.00211842 0)
(0.99929 -0.0038249 0)
(0.996732 -0.00204809 0)
(0.995379 0.000923334 0)
(0.997771 0.00488564 0)
(1.00201 0.00358707 0)
(1.0022 0.00272962 0)
(1.00339 0.0022302 0)
(1.00548 -0.00198783 0)
(1.00277 -0.00241323 0)
(1.00017 -0.00182545 0)
(1.00028 -0.00329787 0)
(0.999096 -0.00264137 0)
(0.997034 -0.000628856 0)
(0.995965 0.000515428 0)
(0.995627 0.00159912 0)
(1.00022 0.000354215 0)
(0.999611 -0.00130579 0)
(0.999182 0.00184015 0)
(1.00175 0.00118228 0)
(1.00249 -0.00206141 0)
(0.999321 -0.00351958 0)
(0.996956 -0.00195636 0)
(0.995725 0.000871338 0)
(0.997907 0.00455765 0)
(1.0019 0.00338872 0)
(1.00213 0.00250725 0)
(1.00309 0.00219614 0)
(1.00516 -0.00167868 0)
(1.00279 -0.00231988 0)
(1.00011 -0.00148971 0)
(1.00022 -0.00276885 0)
(0.999382 -0.0024204 0)
(0.997412 -0.000456711 0)
(0.996255 0.000810651 0)
(0.996022 0.00177742 0)
(1.0002 0.000347831 0)
(0.99967 -0.00120255 0)
(0.999259 0.001642 0)
(1.00162 0.00114239 0)
(1.00233 -0.00198527 0)
(0.999353 -0.00323889 0)
(0.997175 -0.00185698 0)
(0.996064 0.000808341 0)
(0.998043 0.00424252 0)
(1.00179 0.00319529 0)
(1.00207 0.00230061 0)
(1.00281 0.00216675 0)
(1.00484 -0.0013553 0)
(1.00282 -0.00220622 0)
(1.0001 -0.00120939 0)
(1.00014 -0.00224365 0)
(0.999639 -0.00217415 0)
(0.997811 -0.000319253 0)
(0.996563 0.00104915 0)
(0.996366 0.00197029 0)
(1.00018 0.000339706 0)
(0.999724 -0.00110073 0)
(0.999335 0.00145644 0)
(1.0015 0.00108536 0)
(1.00217 -0.0018971 0)
(0.999385 -0.00297347 0)
(0.997386 -0.00174795 0)
(0.996397 0.000737243 0)
(0.998178 0.0039407 0)
(1.00168 0.00300978 0)
(1.00201 0.00210911 0)
(1.00256 0.00213148 0)
(1.00451 -0.00102327 0)
(1.00285 -0.00207376 0)
(1.00012 -0.000989086 0)
(1.00006 -0.00173637 0)
(0.999862 -0.00190253 0)
(0.998223 -0.000213252 0)
(0.996891 0.0012427 0)
(0.996677 0.00214007 0)
(1.00015 0.000330994 0)
(0.999774 -0.00100466 0)
(0.99941 0.00128798 0)
(1.00138 0.0010141 0)
(1.00202 -0.00180692 0)
(0.999419 -0.00271539 0)
(0.99759 -0.00163086 0)
(0.996722 0.000664759 0)
(0.998314 0.00365938 0)
(1.00158 0.002845 0)
(1.00196 0.00193752 0)
(1.00234 0.00208759 0)
(1.00418 -0.000688151 0)
(1.00286 -0.0019152 0)
(1.00017 -0.000820234 0)
(0.99998 -0.00125962 0)
(1.00004 -0.00160144 0)
(0.99864 -0.000131881 0)
(0.997243 0.00139858 0)
(0.996969 0.00228539 0)
(1.00013 0.000320596 0)
(0.999821 -0.000913782 0)
(0.999483 0.00113392 0)
(1.00126 0.000934344 0)
(1.00187 -0.00171673 0)
(0.999454 -0.00247075 0)
(0.997785 -0.00150227 0)
(0.997039 0.000589168 0)
(0.998452 0.00339707 0)
(1.00147 0.00271011 0)
(1.00192 0.00178097 0)
(1.00215 0.0020232 0)
(1.00385 -0.000371444 0)
(1.00286 -0.0017311 0)
(1.00026 -0.000698936 0)
(0.999912 -0.000829606 0)
(1.00019 -0.00126993 0)
(0.999054 -6.17703e-05 0)
(0.997618 0.00151338 0)
(0.997251 0.00241596 0)
(1.00011 0.000309515 0)
(0.999864 -0.000831248 0)
(0.999554 0.000992621 0)
(1.00115 0.000852213 0)
(1.00173 -0.00163793 0)
(0.999492 -0.00223769 0)
(0.99797 -0.00135504 0)
(0.997348 0.000519525 0)
(0.998595 0.00315507 0)
(1.00137 0.00260326 0)
(1.00188 0.00164122 0)
(1.00198 0.00192637 0)
(1.00353 -9.19855e-05 0)
(1.00283 -0.00152303 0)
(1.00038 -0.000609227 0)
(0.999869 -0.00045656 0)
(1.00029 -0.000912835 0)
(0.999452 8.31232e-06 0)
(0.998021 0.00157607 0)
(0.997531 0.002533 0)
(1.00009 0.000297713 0)
(0.999903 -0.000757407 0)
(0.999621 0.000859995 0)
(1.00104 0.000777896 0)
(1.0016 -0.00157339 0)
(0.999536 -0.00202517 0)
(0.998145 -0.00119036 0)
(0.997647 0.000471076 0)
(0.998743 0.00291992 0)
(1.00127 0.00251922 0)
(1.00184 0.00152868 0)
(1.00185 0.00180904 0)
(1.00322 0.00014774 0)
(1.00279 -0.00129126 0)
(1.00052 -0.000530155 0)
(0.999859 -0.000146804 0)
(1.00036 -0.000545945 0)
(0.99982 9.94092e-05 0)
(0.998448 0.00158663 0)
(0.99782 0.00262536 0)
(1.00008 0.000283949 0)
(0.99994 -0.000689151 0)
(0.999687 0.00073385 0)
(1.00094 0.000708335 0)
(1.00148 -0.00151099 0)
(0.999588 -0.00184363 0)
(0.998313 -0.00100816 0)
(0.997933 0.000447065 0)
(0.998897 0.00269419 0)
(1.00117 0.00245171 0)
(1.00179 0.00144613 0)
(1.00174 0.0016865 0)
(1.00294 0.000354139 0)
(1.00272 -0.00104489 0)
(1.00067 -0.000450832 0)
(0.999885 0.00010473 0)
(1.0004 -0.000189639 0)
(1.00015 0.000225435 0)
(0.998892 0.00156176 0)
(0.998131 0.00267737 0)
(1.00006 0.000269366 0)
(0.999973 -0.000625677 0)
(0.999751 0.000607718 0)
(1.00085 0.000651883 0)
(1.00136 -0.00144705 0)
(0.999649 -0.00169852 0)
(0.998476 -0.000823015 0)
(0.998204 0.000448932 0)
(0.999057 0.00248442 0)
(1.00109 0.0023898 0)
(1.00173 0.00139289 0)
(1.00165 0.00156414 0)
(1.00268 0.000524501 0)
(1.00265 -0.000792315 0)
(1.00083 -0.000363848 0)
(0.999949 0.000308618 0)
(1.00043 0.00014338 0)
(1.00043 0.000384786 0)
(0.999337 0.00152462 0)
(0.998472 0.00267359 0)
(1.00005 0.000253842 0)
(1 -0.000563162 0)
(0.999814 0.000483663 0)
(1.00076 0.000607532 0)
(1.00125 -0.00138261 0)
(0.999721 -0.00159229 0)
(0.99864 -0.000649299 0)
(0.998461 0.000479123 0)
(0.99922 0.00230329 0)
(1.00102 0.00233403 0)
(1.00167 0.00137267 0)
(1.00158 0.00145357 0)
(1.00245 0.000655013 0)
(1.00256 -0.000541884 0)
(1.00099 -0.000267245 0)
(1.00005 0.000469633 0)
(1.00046 0.000448118 0)
(1.00065 0.000568879 0)
(0.999765 0.00150146 0)
(0.998845 0.00262102 0)
(1.00003 0.000230902 0)
(1.00003 -0.000493322 0)
(0.999876 0.000355721 0)
(1.00067 0.000571473 0)
(1.00115 -0.0013025 0)
(0.999805 -0.0015109 0)
(0.998808 -0.000502993 0)
(0.998705 0.000534545 0)
(0.999387 0.00214049 0)
(1.00096 0.00227244 0)
(1.0016 0.00137205 0)
(1.00152 0.00136493 0)
(1.00225 0.000759743 0)
(1.00246 -0.000296916 0)
(1.00114 -0.000156329 0)
(1.00018 0.000593212 0)
(1.0005 0.000715747 0)
(1.00084 0.000765942 0)
(1.00016 0.00150395 0)
(0.99924 0.00254188 0)
(1.00002 0.000210739 0)
(1.00005 -0.000430782 0)
(0.999935 0.000236219 0)
(1.0006 0.000534486 0)
(1.00104 -0.00118155 0)
(0.999895 -0.00143058 0)
(0.998981 -0.000360938 0)
(0.998937 0.000617845 0)
(0.999554 0.00197578 0)
(1.00091 0.00217255 0)
(1.00153 0.00137068 0)
(1.00148 0.00130075 0)
(1.00209 0.000841236 0)
(1.00237 -6.49267e-05 0)
(1.00128 -3.05618e-05 0)
(1.00034 0.000685162 0)
(1.00055 0.000937707 0)
(1.00099 0.00096367 0)
(1.00052 0.00152661 0)
(0.999641 0.00245196 0)
(1.00001 0.000188337 0)
(1.00007 -0.000367981 0)
(0.999993 0.000130656 0)
(1.00054 0.00049706 0)
(1.00094 -0.00100972 0)
(0.99999 -0.00131869 0)
(0.999165 -0.000246103 0)
(0.999153 0.000683207 0)
(0.999709 0.00179855 0)
(1.00089 0.00202797 0)
(1.00147 0.00136104 0)
(1.00144 0.00126144 0)
(1.00195 0.000910972 0)
(1.00227 0.000145513 0)
(1.00141 0.000106233 0)
(1.00053 0.000757689 0)
(1.00063 0.00111184 0)
(1.00111 0.00115327 0)
(1.00083 0.00156838 0)
(1.00004 0.00236686 0)
(1 0.000160483 0)
(1.00008 -0.000299921 0)
(1.00005 3.45868e-05 0)
(1.0005 0.000462957 0)
(1.00084 -0.000809383 0)
(1.00008 -0.00117566 0)
(0.99935 -0.00019345 0)
(0.999357 0.000709311 0)
(0.999853 0.00163289 0)
(1.00087 0.00187521 0)
(1.00142 0.00134463 0)
(1.00142 0.00123992 0)
(1.00183 0.000977789 0)
(1.00219 0.000341597 0)
(1.00153 0.00024809 0)
(1.00072 0.000818531 0)
(1.00074 0.00124247 0)
(1.00122 0.00132525 0)
(1.0011 0.00162776 0)
(1.00042 0.0022965 0)
(0.999997 0.000135962 0)
(1.00009 -0.000237334 0)
(1.0001 -4.61873e-05 0)
(1.00047 0.00041411 0)
(1.00075 -0.00060962 0)
(1.00016 -0.00102567 0)
(0.999534 -0.000158923 0)
(0.999552 0.000726694 0)
(0.999987 0.00151447 0)
(1.00088 0.00174619 0)
(1.00138 0.00131826 0)
(1.0014 0.00122976 0)
(1.00175 0.00103859 0)
(1.00211 0.000518002 0)
(1.00163 0.00038935 0)
(1.00093 0.000870784 0)
(1.00088 0.00133277 0)
(1.00132 0.00146893 0)
(1.00133 0.00169361 0)
(1.00077 0.00224048 0)
(0.999991 0.000108786 0)
(1.0001 -0.000175205 0)
(1.00015 -0.000110282 0)
(1.00046 0.000349485 0)
(1.00067 -0.000423011 0)
(1.00023 -0.00085964 0)
(0.999714 -0.000129252 0)
(0.999744 0.000731515 0)
(1.00012 0.0014292 0)
(1.00089 0.00163878 0)
(1.00135 0.00128191 0)
(1.0014 0.00121328 0)
(1.00168 0.00108899 0)
(1.00205 0.000676145 0)
(1.00172 0.000540295 0)
(1.00113 0.000930257 0)
(1.00104 0.00139165 0)
(1.00143 0.00158284 0)
(1.00154 0.00175964 0)
(1.00109 0.00219825 0)
(0.999986 8.41578e-05 0)
(1.0001 -0.000119989 0)
(1.00018 -0.000151276 0)
(1.00047 0.00027189 0)
(1.00061 -0.000255867 0)
(1.00029 -0.000673546 0)
(0.999884 -9.88463e-05 0)
(0.999933 0.000715973 0)
(1.00024 0.00135673 0)
(1.0009 0.0015492 0)
(1.00133 0.00124866 0)
(1.00141 0.00118844 0)
(1.00165 0.00113061 0)
(1.002 0.000820632 0)
(1.0018 0.000691048 0)
(1.00133 0.00100147 0)
(1.00122 0.00143052 0)
(1.00155 0.001667 0)
(1.00171 0.00182315 0)
(1.00138 0.00216593 0)
(0.999982 6.2005e-05 0)
(1.0001 -7.38128e-05 0)
(1.00021 -0.000169179 0)
(1.00049 0.000187627 0)
(1.00056 -0.000115068 0)
(1.00033 -0.000477661 0)
(1.00004 -5.7871e-05 0)
(1.00012 0.000684682 0)
(1.00036 0.00128843 0)
(1.00092 0.00148624 0)
(1.00132 0.00122533 0)
(1.00143 0.00116612 0)
(1.00163 0.00115681 0)
(1.00196 0.000941937 0)
(1.00186 0.000825683 0)
(1.0015 0.00107714 0)
(1.0014 0.00146107 0)
(1.00169 0.00172028 0)
(1.00187 0.00187915 0)
(1.00163 0.00214456 0)
(0.999977 4.43852e-05 0)
(1.0001 -3.74624e-05 0)
(1.00023 -0.000163105 0)
(1.00051 0.000104252 0)
(1.00053 -7.31828e-06 0)
(1.00037 -0.000282155 0)
(1.00018 3.61162e-06 0)
(1.0003 0.000649562 0)
(1.00049 0.00121342 0)
(1.00095 0.00143743 0)
(1.00131 0.00121835 0)
(1.00145 0.00115304 0)
(1.00164 0.00116581 0)
(1.00195 0.00103884 0)
(1.00193 0.000949976 0)
(1.00167 0.00115442 0)
(1.00159 0.00149214 0)
(1.00183 0.00174911 0)
(1.00202 0.00191679 0)
(1.00185 0.00213555 0)
(0.999973 3.14603e-05 0)
(1.0001 -1.07156e-05 0)
(1.00024 -0.000132502 0)
(1.00055 3.29754e-05 0)
(1.00052 6.19586e-05 0)
(1.0004 -0.000101475 0)
(1.00029 8.70533e-05 0)
(1.00046 0.000617854 0)
(1.00062 0.00113061 0)
(1.00098 0.00138952 0)
(1.0013 0.00122509 0)
(1.00148 0.00115418 0)
(1.00166 0.00117254 0)
(1.00195 0.0011072 0)
(1.00199 0.00105599 0)
(1.00182 0.00122635 0)
(1.00176 0.00152003 0)
(1.00198 0.00176365 0)
(1.00217 0.00192668 0)
(1.00203 0.00212936 0)
(0.999969 2.45654e-05 0)
(1.00009 6.05336e-06 0)
(1.00024 -8.46063e-05 0)
(1.00058 -1.82088e-05 0)
(1.00054 9.44169e-05 0)
(1.00043 6.05499e-05 0)
(1.00039 0.000186348 0)
(1.00061 0.00059859 0)
(1.00075 0.00104828 0)
(1.00103 0.00133936 0)
(1.0013 0.00123781 0)
(1.0015 0.00116488 0)
(1.00169 0.00118284 0)
(1.00197 0.0011546 0)
(1.00205 0.0011347 0)
(1.00196 0.0012887 0)
(1.00193 0.00154255 0)
(1.00212 0.00177476 0)
(1.00231 0.00191962 0)
(1.0022 0.00211522 0)
(0.999966 2.33657e-05 0)
(1.0001 1.45644e-05 0)
(1.00024 -2.91698e-05 0)
(1.00061 -4.20072e-05 0)
(1.00056 0.000100217 0)
(1.00047 0.00019212 0)
(1.00046 0.000295565 0)
(1.00073 0.000600522 0)
(1.00087 0.000969544 0)
(1.00109 0.00128011 0)
(1.00131 0.00124882 0)
(1.00152 0.00118752 0)
(1.00172 0.0011969 0)
(1.00199 0.00119764 0)
(1.00212 0.00119355 0)
(1.00209 0.00133667 0)
(1.00209 0.00155737 0)
(1.00226 0.0017792 0)
(1.00245 0.00190698 0)
(1.00236 0.00208041 0)
(0.999962 2.68423e-05 0)
(1.0001 1.87158e-05 0)
(1.00023 2.6831e-05 0)
(1.00063 -3.34301e-05 0)
(1.0006 9.20425e-05 0)
(1.00052 0.000281293 0)
(1.00053 0.000403604 0)
(1.00083 0.000626878 0)
(1.00099 0.000906645 0)
(1.00116 0.00121017 0)
(1.00133 0.00124983 0)
(1.00154 0.00121772 0)
(1.00175 0.00121324 0)
(1.00202 0.00123262 0)
(1.00219 0.00124135 0)
(1.00221 0.00136955 0)
(1.00225 0.00156264 0)
(1.00239 0.00177293 0)
(1.00257 0.00189497 0)
(1.00251 0.00203186 0)
(0.999959 3.41098e-05 0)
(1.00011 1.83762e-05 0)
(1.00022 7.82423e-05 0)
(1.00064 -8.92267e-07 0)
(1.00064 8.49737e-05 0)
(1.00058 0.000334465 0)
(1.00058 0.000499685 0)
(1.00091 0.00067066 0)
(1.00109 0.000865732 0)
(1.00124 0.001141 0)
(1.00136 0.00123526 0)
(1.00155 0.00124554 0)
(1.00178 0.00123948 0)
(1.00206 0.00125936 0)
(1.00225 0.00127861 0)
(1.00232 0.0013936 0)
(1.00239 0.00155692 0)
(1.00252 0.00175222 0)
(1.00269 0.00187803 0)
(1.00265 0.00198101 0)
(0.999956 4.34857e-05 0)
(1.00012 1.7755e-05 0)
(1.00021 0.000121171 0)
(1.00064 4.79184e-05 0)
(1.00069 9.09073e-05 0)
(1.00065 0.00036219 0)
(1.00064 0.000576768 0)
(1.00097 0.000725076 0)
(1.00117 0.00084689 0)
(1.00132 0.00108378 0)
(1.00141 0.00120576 0)
(1.00158 0.00125993 0)
(1.00181 0.0012681 0)
(1.00209 0.0012893 0)
(1.00231 0.00130495 0)
(1.00241 0.00141249 0)
(1.00252 0.00154737 0)
(1.00265 0.00171789 0)
(1.00279 0.00185101 0)
(1.00277 0.00193356 0)
(0.999954 5.32643e-05 0)
(1.00013 1.96363e-05 0)
(1.00021 0.000152799 0)
(1.00063 0.000108072 0)
(1.00072 0.000114149 0)
(1.00072 0.000374853 0)
(1.00071 0.000628521 0)
(1.00102 0.000782115 0)
(1.00124 0.000852583 0)
(1.0014 0.00104069 0)
(1.00146 0.00117214 0)
(1.00161 0.00125938 0)
(1.00184 0.00128436 0)
(1.00211 0.00131997 0)
(1.00236 0.00132744 0)
(1.0025 0.00142041 0)
(1.00264 0.00153892 0)
(1.00277 0.00167509 0)
(1.00289 0.0018091 0)
(1.00287 0.00188732 0)
(0.999952 6.2293e-05 0)
(1.00014 2.606e-05 0)
(1.00021 0.000171024 0)
(1.00063 0.000170698 0)
(1.00075 0.000158077 0)
(1.0008 0.00038489 0)
(1.00078 0.000655692 0)
(1.00106 0.000831407 0)
(1.00129 0.000878425 0)
(1.00147 0.00101454 0)
(1.00153 0.00114124 0)
(1.00166 0.00125186 0)
(1.00187 0.0012895 0)
(1.00214 0.00133775 0)
(1.00241 0.00135057 0)
(1.00258 0.00141905 0)
(1.00273 0.00152618 0)
(1.00288 0.0016336 0)
(1.00299 0.00175055 0)
(1.00296 0.00183627 0)
(0.99995 6.99487e-05 0)
(1.00015 3.7361e-05 0)
(1.00021 0.000183076 0)
(1.00062 0.000228763 0)
(1.00078 0.000217841 0)
(1.00088 0.000400481 0)
(1.00085 0.000668719 0)
(1.00111 0.000867464 0)
(1.00132 0.000911209 0)
(1.00152 0.00101048 0)
(1.00159 0.00111335 0)
(1.00171 0.00123748 0)
(1.00191 0.00128943 0)
(1.00217 0.00134077 0)
(1.00245 0.00136416 0)
(1.00264 0.00141744 0)
(1.00282 0.00150329 0)
(1.00297 0.00159725 0)
(1.00309 0.0016843 0)
(1.00304 0.00177359 0)
(0.99995 7.58081e-05 0)
(1.00015 5.33941e-05 0)