/*--------------------------------*- C++ -*----------------------------------*\
| =========                 |                                                 |
| \\      /  F ield         | OpenFOAM: The Open Source CFD Toolbox           |
|  \\    /   O peration     | Version:  3.0.1                                 |
|   \\  /    A nd           | Web:      www.OpenFOAM.org                      |
|    \\/     M anipulation  |                                                 |
\*---------------------------------------------------------------------------*/
FoamFile
{
    version     2.0;
    format      ascii;
    class       volScalarField;
    location    "3.2";
    object      p;
}
// * * * * * * * * * * * * * * * * * * * * * * * * * * * * * * * * * * * * * //

dimensions      [0 2 -2 0 0 0 0];

internalField   nonuniform List<scalar> 
9600
(
6.41075e-11
0.000974041
0.00184859
-0.000592316
-0.0025001
0.00118128
0.00157079
-5.68874e-05
0.00142962
0.00182694
0.00156077
0.00187753
0.00281514
0.00295666
0.00268705
0.00476319
0.00291141
0.00370476
0.0039552
0.00486257
3.5158e-06
0.00097272
0.00183368
-0.000591416
-0.00247957
0.0011631
0.00155463
-5.78686e-05
0.00142104
0.00182359
0.00157076
0.00186933
0.00283115
0.00294463
0.00270392
0.00461364
0.00293039
0.00366561
0.00396314
0.00468989
7.86725e-06
0.000970024
0.00182558
-0.000588449
-0.00245878
0.00113794
0.001532
-5.40849e-05
0.0014074
0.00182445
0.00157839
0.0018546
0.00284709
0.00292261
0.00272201
0.00447609
0.00296268
0.00360824
0.00396453
0.00445892
1.33124e-05
0.000969475
0.00180761
-0.000583803
-0.00243541
0.00111107
0.00151031
-4.30598e-05
0.00138955
0.00182795
0.00158374
0.00183326
0.0028625
0.00289188
0.00274294
0.00433313
0.00298966
0.00355571
0.00394468
0.00423629
2.12133e-05
0.000970778
0.00178498
-0.000576143
-0.00240423
0.00108233
0.00148931
-2.59299e-05
0.00136907
0.00183417
0.00158831
0.00180734
0.00287907
0.00285501
0.00276775
0.00418522
0.0030148
0.00350932
0.00389942
0.00403984
3.1949e-05
0.000972505
0.00175846
-0.000564198
-0.00236332
0.00105175
0.00146941
-3.5436e-06
0.00134972
0.00184303
0.00159277
0.00177927
0.00289634
0.002816
0.0027945
0.00403781
0.0030406
0.00346182
0.00383444
0.00387046
4.51959e-05
0.00097394
0.00172984
-0.000547737
-0.00231306
0.00102087
0.0014524
2.37226e-05
0.00133403
0.00185391
0.00159768
0.00175038
0.00291395
0.00277731
0.00282042
0.00389579
0.00306129
0.00341358
0.00375562
0.00371643
6.0368e-05
0.00097487
0.00170076
-0.000527367
-0.00225467
0.000991625
0.00143919
5.49812e-05
0.00132271
0.00186611
0.00160331
0.00172119
0.00293175
0.00273968
0.00284453
0.00376102
0.00307233
0.00337011
0.00366184
0.00356838
7.68854e-05
0.000975291
0.00167222
-0.000504048
-0.00218955
0.00096491
0.00142935
8.88248e-05
0.00131524
0.00187896
0.00160958
0.00169187
0.00294943
0.00270372
0.00286612
0.00363412
0.00307254
0.00333358
0.00355023
0.00342258
9.4342e-05
0.000975328
0.00164461
-0.000478758
-0.00211914
0.000940595
0.00142176
0.000123862
0.0013107
0.00189186
0.00161625
0.00166244
0.00296657
0.00267022
0.00288375
0.0035161
0.00306085
0.00330321
0.00342184
0.00327658
0.000112541
0.000975123
0.0016178
-0.000452268
-0.00204468
0.00091804
0.00141535
0.00015911
0.00130812
0.00190428
0.00162308
0.00163284
0.00298266
0.00263994
0.00289571
0.00340803
0.00303558
0.00327801
0.00328043
0.00312599
0.000131431
0.000974754
0.00159149
-0.000425087
-0.00196714
0.000896601
0.00140938
0.000193927
0.00130674
0.00191591
0.00162976
0.00160315
0.00299717
0.00261354
0.00290035
0.0033107
0.00299536
0.00325652
0.00313062
0.00296592
0.000151018
0.000974243
0.00156544
-0.000397509
-0.00188725
0.000875901
0.00140342
0.000227879
0.00130611
0.00192668
0.00163596
0.00157353
0.00300949
0.00259173
0.00289607
0.00322438
0.00293988
0.00323588
0.00297797
0.00279338
0.00017133
0.00097358
0.00153953
-0.000369682
-0.00180551
0.000855807
0.00139713
0.000260789
0.00130604
0.00193674
0.00164138
0.00154429
0.00301892
0.0025751
0.00288153
0.00314877
0.00287029
0.00321196
0.00282835
0.00260778
0.000192387
0.000972746
0.00151372
-0.00034166
-0.00172224
0.000836322
0.00139035
0.00029269
0.00130642
0.0019464
0.00164568
0.00151577
0.00302488
0.00256396
0.00285558
0.00308275
0.00278916
0.00318009
0.00268703
0.00241041
0.000214208
0.000971716
0.00148807
-0.000313445
-0.0016377
0.000817504
0.00138301
0.000323713
0.0013072
0.00195603
0.00164851
0.00148824
0.00302685
0.00255852
0.0028177
0.00302424
0.00269972
0.00313589
0.00255797
0.00220431
0.000236813
0.000970469
0.00146263
-0.000285009
-0.00155209
0.000799435
0.00137507
0.000354039
0.00130826
0.00196608
0.00164954
0.00146194
0.00302434
0.00255871
0.00276807
0.00297051
0.00260531
0.00307586
0.00244317
0.00199364
0.000260224
0.000968986
0.0014375
-0.000256302
-0.00146561
0.000782216
0.00136649
0.000383897
0.00130938
0.00197695
0.00164861
0.00143693
0.00301696
0.00256395
0.00270752
0.00291869
0.00250901
0.00299795
0.00234264
0.00178312
0.000284461
0.000967245
0.00141277
-0.000227247
-0.0013785
0.000765975
0.00135718
0.000413512
0.00131037
0.00198888
0.00164571
0.00141311
0.00300459
0.0025734
0.00263616
0.00286588
0.00241322
0.00290195
0.0022549
0.00157785
0.000309531
0.000965241
0.00138851
-0.000197761
-0.001291
0.000750907
0.00134706
0.000443082
0.00131099
0.00200199
0.00164094
0.00139014
0.00298755
0.00258615
0.00255965
0.00280945
0.00231957
0.00278898
0.00217745
0.00138327
0.000335437
0.000963005
0.00136479
-0.000167753
-0.00120343
0.000737256
0.00133606
0.000472764
0.00131094
0.00201633
0.00163461
0.00136734
0.0029663
0.00260119
0.00248127
0.00274738
0.0022294
0.00266059
0.00210684
0.00120483
0.000362165
0.000960589
0.00134167
-0.000137077
-0.00111611
0.000725242
0.00132411
0.000502695
0.00130994
0.00203171
0.00162745
0.00134385
0.0029412
0.00261759
0.00239861
0.00267857
0.00214399
0.00251819
0.00203868
0.00104731
0.000389685
0.000958088
0.00131916
-0.000105594
-0.00102934
0.000715074
0.00131112
0.000533002
0.00130779
0.00204764
0.00162046
0.00131897
0.00291237
0.00263479
0.0023123
0.00260225
0.00206443
0.00236354
0.00196849
0.000914382
0.000417938
0.000955647
0.00129725
-7.3179e-05
-0.000943396
0.000706956
0.00129703
0.000563693
0.00130461
0.00206344
0.00161449
0.00129218
0.00287975
0.00265264
0.00222274
0.00251735
0.00199156
0.0021995
0.00189224
0.000808006
0.000446835
0.000953467
0.00127592
-3.96813e-05
-0.000858581
0.000701011
0.0012819
0.000594641
0.0013008
0.00207831
0.00161022
0.00126317
0.00284279
0.00267098
0.00213092
0.00242267
0.00192618
0.00202995
0.00180605
0.000728623
0.000476247
0.000951829
0.00125512
-5.00235e-06
-0.000775099
0.000697299
0.00126588
0.000625607
0.00129671
0.00209155
0.00160829
0.00123183
0.00280073
0.00268946
0.00203793
0.00231697
0.00186887
0.00185979
0.00170596
0.000675428
0.00050602
0.000951065
0.00123483
3.08809e-05
-0.000693178
0.000695943
0.00124934
0.000656107
0.00129278
0.00210265
0.00160893
0.00119835
0.00275302
0.00270786
0.00194493
0.00219885
0.00181941
0.00169509
0.00158774
0.000644663
0.000535976
0.000951554
0.00121502
6.79707e-05
-0.000612929
0.000696759
0.00123272
0.000685619
0.0012893
0.00211117
0.00161212
0.00116341
0.00269866
0.00272567
0.00185372
0.00206728
0.00177614
0.00154306
0.00144817
0.000627177
0.000565898
0.000953707
0.00119566
0.00010626
-0.000534292
0.000699237
0.00121668
0.0007139
0.0012862
0.00211675
0.00161778
0.0011276
0.00263649
0.00274191
0.0017666
0.00192199
0.00173537
0.0014114
0.00128845
0.000608562
0.000595562
0.000957939
0.00117677
0.000145602
-0.000457185
0.000703139
0.0012021
0.00074081
0.00128317
0.00211928
0.00162565
0.00109125
0.00256584
0.00275518
0.00168602
0.00176378
0.00169175
0.00130644
0.00111655
0.000572076
0.000624722
0.00096465
0.00115853
0.000185617
-0.000381303
0.000707923
0.00118948
0.000766374
0.00127962
0.00211858
0.00163575
0.00105517
0.00248607
0.00276374
0.00161437
0.00159463
0.00163938
0.00123047
0.00094603
0.000504605
0.000653113
0.000974212
0.00114122
0.000225856
-0.000306099
0.000712416
0.00117901
0.000791307
0.00127455
0.00211399
0.00164799
0.00102018
0.00239665
0.00276616
0.00155329
0.00141741
0.0015731
0.00118035
0.000790932
0.000404041
0.000680503
0.000986933
0.0011252
0.000265773
-0.000230845
0.000715848
0.00117053
0.000816823
0.00126744
0.00210451
0.00166176
0.000986957
0.00229735
0.00276055
0.00150195
0.00123592
0.00148948
0.00114913
0.000661724
0.000280575
0.000706747
0.00100299
0.0011108
0.000304443
-0.000154993
0.000717856
0.00116329
0.000844151
0.00125853
0.00208889
0.00167618
0.000956677
0.00218833
0.00274453
0.00145893
0.00105437
0.00138686
0.00112982
0.000562526
0.00014935
0.000731697
0.00102238
0.00109595
0.000340975
-7.85489e-05
0.000698986
0.00115612
0.000874128
0.00124824
0.00206585
0.00169029
0.000930751
0.00207036
0.00271589
0.00143648
0.000877327
0.00126431
0.00111687
0.000493226
2.30363e-05
0.000755212
0.00104474
0.00108578
0.000375055
-1.72009e-06
0.000700584
0.00114765
0.000906631
0.0012378
0.0020343
0.00170276
0.000910302
0.00194485
0.0026722
0.00143003
0.000710264
0.00112094
0.00110521
0.000453841
-8.99662e-05
0.000777366
0.00106924
0.00108443
0.000406823
7.45954e-05
0.000705672
0.00113692
0.000940491
0.00122849
0.00199382
0.00171157
0.00089601
0.00181376
0.00261155
0.00143789
0.000559806
0.000956701
0.00108785
0.000444986
-0.00018302
0.000798428
0.00109462
0.00109087
0.000437493
0.000148766
0.000714476
0.00112401
0.000974118
0.00122085
0.00194464
0.00171463
0.000888014
0.00167946
0.00253357
0.00145723
0.000432798
0.000774256
0.00105551
0.000465199
-0.000248426
0.000818678
0.00111986
0.00110517
0.000468866
0.000219132
0.000726766
0.0011091
0.00100562
0.00121503
0.0018882
0.00171084
0.000886381
0.00154499
0.00243624
0.0014827
0.000335187
0.000580462
0.000998602
0.000507529
-0.000277986
0.000838446
0.00114425
0.00112793
0.00050267
0.00028455
0.000742039
0.00109247
0.00103282
0.00121205
0.00182767
0.00169952
0.000890651
0.00141399
0.00232027
0.00150811
0.000269794
0.000384866
0.000910102
0.000559483
-0.00026634
0.000858305
0.00116698
0.00115884
0.000540834
0.000344522
0.000759156
0.00107436
0.00105359
0.00121226
0.00176693
0.00168049
0.000899103
0.0012897
0.00218811
0.00152771
0.000236127
0.000197111
0.000787845
0.000605586
-0.000214345
0.000879418
0.00118724
0.00119582
0.000585277
0.000399732
0.000777087
0.00105486
0.00106551
0.00121543
0.00170995
0.00165619
0.000910338
0.00117411
0.00204298
0.00153676
0.000231998
2.61219e-05
0.000635091
0.000631198
-0.000130177
0.00090274
0.00120462
0.0012345
0.000637378
0.000451332
0.00079589
0.00103362
0.00106514
0.00121497
0.00165871
0.00163131
0.000924413
0.00106881
0.00188806
0.00153095
0.000253614
-0.000119342
0.000459753
0.00062582
-2.73158e-05
0.00092879
0.00121942
0.0012737
0.000698059
0.000499696
0.000813906
0.00101319
0.00105125
0.00120697
0.00161362
0.00160741
0.000941029
0.000975397
0.00172666
0.00150647
0.000294527
-0.000231541
0.000272264
0.000583239
7.73812e-05
0.000958398
0.00123204
0.00131515
0.000766995
0.000544179
0.000824169
0.000996346
0.00103538
0.00119591
0.0015727
0.00158319
0.000958314
0.000894415
0.00156299
0.00146102
0.000346105
-0.000305533
8.51618e-05
0.000502161
0.000167375
0.00099198
0.00124326
0.00135233
0.000840057
0.0005857
0.000830264
0.000987737
0.00102328
0.00118046
0.00152921
0.00155541
0.000975173
0.000826784
0.00140211
0.00139453
0.000398855
-0.000341505
-8.84531e-05
0.000387666
0.000229882
0.00102948
0.00125459
0.00138058
0.000914644
0.000629292
0.000833473
0.000983373
0.00101602
0.00116039
0.0014807
0.00152288
0.000992062
0.000773518
0.001247
0.00130914
0.000444598
-0.000344707
-0.000237289
0.000250262
0.000257999
0.00107081
0.00126676
0.00140172
0.000989528
0.000677113
0.000833405
0.00097973
0.00101363
0.00113933
0.0014285
0.00148566
0.00100792
0.000733523
0.00110197
0.00120948
0.000477828
-0.000322954
-0.000354244
0.000102079
0.000249875
0.0011157
0.0012809
0.00141732
0.00106199
0.000728905
0.000831277
0.000975074
0.00101582
0.00112141
0.0013744
0.00144294
0.00102082
0.000705403
0.000971187
0.00110144
0.000495013
-0.000285121
-0.000436723
-4.4659e-05
0.00020809
0.00116379
0.00129819
0.0014268
0.00112866
0.000784938
0.000829628
0.000967991
0.00102109
0.00110821
0.00132081
0.00139481
0.00102921
0.000688039
0.000856315
0.000989583
0.000495296
-0.000239951
-0.000485544
-0.000177687
0.000140258
0.00121456
0.00132016
0.00143086
0.00118668
0.000845142
0.000831288
0.0009576
0.00102679
0.00110036
0.00127099
0.001342
0.00103097
0.000680991
0.000758371
0.0008781
0.000481256
-0.000193693
-0.000504953
-0.000287934
5.6441e-05
0.0012672
0.00134705
0.001431
0.00123415
0.000908491
0.000839349
0.00094131
0.00102965
0.00109745
0.00122733
0.00128644
0.00102415
0.000679817
0.000678299
0.000772077
0.000456142
-0.000151142
-0.000503108
-0.000372268
-3.27102e-05
0.00132064
0.00137858
0.00142909
0.00127076
0.000973381
0.000855712
0.000925836
0.001027
0.00109759
0.00119168
0.00123279
0.00101013
0.000679485
0.000614444
0.000674085
0.000421641
-0.000115089
-0.000487327
-0.000430773
-0.000115198
0.00137356
0.00141349
0.0014292
0.00129781
0.00103636
0.000880778
0.00091141
0.00101778
0.00109752
0.00116447
0.00118364
0.000990278
0.000678088
0.000562951
0.000584978
0.00038048
-8.57025e-05
-0.000460695
-0.000464694
-0.000181725
0.00142488
0.00145136
0.00143392
0.00131688
0.00109336
0.000913902
0.000901346
0.00100218
0.00109382
0.00114449
0.00113973
0.00096685
0.000676487
0.0005231
0.000506457
0.000336074
-6.35072e-05
-0.000426784
-0.000478842
-0.00023047
0.00147419
0.00149092
0.0014445
0.00133008
0.00114169
0.000953139
0.00089859
0.000982949
0.00108433
0.00112889
0.00110585
0.000943396
0.000674391
0.000494679
0.00043964
0.000290321
-4.93039e-05
-0.000389878
-0.000477946
-0.000263111
0.00152147
0.00153099
0.00146078
0.00133995
0.00118017
0.000994823
0.000904883
0.000963777
0.0010679
0.00111603
0.00108098
0.000924597
0.000672315
0.000475304
0.000385404
0.00024544
-4.22629e-05
-0.000352033
-0.000463689
-0.000280875
0.00156688
0.0015706
0.00148207
0.00134904
0.00120878
0.00103509
0.000920142
0.000948418
0.00104627
0.00109886
0.00106199
0.000911283
0.000672842
0.000463625
0.000344057
0.000204618
-4.14753e-05
-0.000315132
-0.000437831
-0.000285237
0.00161055
0.0016087
0.00150731
0.00135957
0.00122867
0.00107106
0.000942671
0.00093942
0.00102309
0.00107894
0.00104506
0.000901818
0.000677161
0.000460583
0.000315433
0.00017124
-4.50999e-05
-0.00028211
-0.00040356
-0.000277156
0.00165259
0.00164491
0.00153473
0.00137276
0.00124212
0.00110056
0.000969653
0.000938182
0.00100237
0.00105686
0.00102928
0.000895219
0.000683793
0.000465782
0.000299359
0.000147457
-4.88544e-05
-0.000254217
-0.000364316
-0.000256549
0.00169302
0.00167905
0.00156245
0.00138874
0.00125202
0.00112289
0.000997792
0.000953085
0.000987946
0.00103425
0.00101376
0.000891888
0.000692554
0.000477143
0.000295518
0.000134042
-4.87877e-05
-0.000229738
-0.000323792
-0.000224909
0.00173161
0.00171097
0.00158915
0.00140692
0.00126074
0.00113876
0.00102364
0.000967296
0.000981298
0.00101522
0.000998712
0.000890649
0.00070498
0.000493644
0.000302823
0.000131827
-4.29074e-05
-0.000205368
-0.000284362
-0.000186072
0.00176798
0.00174072
0.00161406
0.00142622
0.00126966
0.00114972
0.00104532
0.000984922
0.000982064
0.00100326
0.000986627
0.000889966
0.000720467
0.000515985
0.000319684
0.000141272
-2.99555e-05
-0.000178515
-0.000245249
-0.000143568
0.00180168
0.00176833
0.0016368
0.00144521
0.00127933
0.00115781
0.00106252
0.0010033
0.000989202
0.000998652
0.000980793
0.000892704
0.000737863
0.00054419
0.000345976
0.000162278
-7.9229e-06
-0.000147295
-0.0002041
-9.87335e-05
0.00183217
0.00179341
0.00165715
0.00146288
0.00128952
0.00116405
0.00107564
0.00102074
0.00100127
0.0010008
0.000981336
0.000901724
0.000759228
0.000577365
0.000382464
0.000195583
2.56326e-05
-0.000108603
-0.000158495
-4.99349e-05
0.00185885
0.00181555
0.00167505
0.00147857
0.00129958
0.00117017
0.00108578
0.00103646
0.00101672
0.00101031
0.000988537
0.000917316
0.000787846
0.000616792
0.000428644
0.000241833
7.16511e-05
-5.99812e-05
-0.000106326
3.69182e-06
0.00188124
0.00183411
0.00169005
0.0014918
0.00130872
0.00117572
0.00109402
0.00105052
0.00103373
0.0010264
0.0010043
0.00094023
0.000824787
0.000665355
0.000484584
0.000301002
0.000130944
6.68133e-07
-4.48681e-05
6.45433e-05
0.00189896
0.00184875
0.00170134
0.00150176
0.00131596
0.00118021
0.00110062
0.0010633
0.00105165
0.00104686
0.00102887
0.000972792
0.000870396
0.000724929
0.000552635
0.000373948
0.000205505
7.57362e-05
2.96057e-05
0.000136039
0.00191117
0.00185873
0.0017089
0.00150801
0.00132031
0.00118312
0.00110536
0.00107405
0.00106979
0.00107029
0.00106026
0.0010168
0.000928171
0.000798442
0.000637612
0.000464442
0.000298667
0.000168557
0.000120119
0.000220877
0.00191728
0.00186286
0.00171195
0.00150986
0.00132117
0.00118353
0.00110791
0.0010826
0.00108635
0.00109497
0.00109565
0.00106948
0.00100104
0.00089141
0.00074812
0.000582672
0.000418584
0.000286225
0.00023174
0.000322364
0.00191713
0.00186247
0.00170837
0.00150614
0.00131762
0.00117994
0.00110659
0.0010882
0.00110037
0.0011187
0.0011334
0.00112597
0.0010857
0.00100848
0.000893343
0.000747988
0.000587354
0.000446468
0.000375625
0.00044615
0.00190725
0.00185287
0.00170086
0.00149907
0.00130904
0.00117135
0.00110003
0.00108826
0.0011101
0.00113975
0.00117185
0.00118604
0.00117637
0.00114257
0.00107694
0.000977888
0.00084881
0.000714227
0.000623088
0.000650964
0.00188765
0.00183582
0.00168689
0.00148468
0.00129424
0.00115744
0.00108698
0.00107777
0.00110942
0.00115609
0.00121243
0.00125449
0.00126741
0.00126576
0.00124109
0.00119345
0.00112879
0.00105877
0.00101373
0.00105127
0.00186438
0.0018136
0.00166114
0.00145874
0.00127228
0.00113935
0.0010674
0.00105182
0.00107771
0.00113639
0.00124595
0.00138748
0.00152903
0.00165022
0.00170552
0.00166514
0.00153629
0.00136173
0.00120648
0.00112512
0.00182726
0.00177598
0.00162566
0.0014317
0.00125445
0.00112129
0.00104285
0.00101438
0.00101262
0.00100362
0.000996949
0.00104462
0.00123956
0.00161987
0.00205248
0.00242341
0.00271514
0.00295129
0.00313728
0.00325576
0.00177123
0.00171911
0.0015785
0.00140105
0.00124542
0.0011299
0.00104827
0.00099357
0.000984915
0.00108581
0.00136615
0.0017291
0.00202609
0.00220718
0.00230502
0.00236214
0.00242694
0.00251926
0.00263172
0.00271023
0.00169873
0.00166323
0.00152055
0.0013392
0.00116848
0.00103517
0.000987335
0.00107786
0.00126128
0.00143733
0.00157
0.00165346
0.00176172
0.0019557
0.00222069
0.00253884
0.00287193
0.00320053
0.0034829
0.00364664
0.00157096
0.00155866
0.00150755
0.00143208
0.00136486
0.00133199
0.00133998
0.00138599
0.00146311
0.00155445
0.00168003
0.00183127
0.00196027
0.00204674
0.00205132
0.00198024
0.00184284
0.00164356
0.001415
0.00122101
0.00141996
0.00139867
0.00142811
0.00145183
0.00143703
0.00138907
0.00134547
0.00133153
0.00138037
0.00146975
0.00158802
0.00174572
0.00191399
0.002107
0.0023598
0.00264538
0.00294275
0.00321858
0.00343961
0.00353606
0.00133088
0.00131798
0.0013702
0.00143807
0.00148982
0.00154074
0.00159366
0.0016312
0.00167602
0.00173118
0.00177218
0.00185196
0.00196191
0.00205479
0.00215477
0.00226412
0.00238608
0.00250809
0.00259475
0.00258707
0.006052
0.00275655
-0.00320576
-0.00741991
-0.0078615
-0.00627448
-0.00450112
-0.00310699
-0.00206765
-0.00134631
-0.000962386
-0.000783665
-0.000553304
-0.000146658
0.000333668
0.000744571
0.00105258
0.00126657
0.0014463
0.001737
0.00216694
0.00259303
0.00294565
0.00328271
0.00365577
0.0040663
0.00446836
0.00481495
0.00512707
0.00545569
0.00579643
0.00611069
0.00639519
0.0066946
0.0070453
0.0074322
0.007822
0.00821723
0.00863406
0.00905568
0.00945768
0.00984849
0.0102429
0.0106278
0.0109915
0.0113768
0.0118082
0.0122493
0.0126821
0.0131411
0.0136358
0.0141183
0.0145786
0.0150656
0.0155638
0.0160451
0.0165454
0.0170716
0.0176004
0.0181436
0.0187039
0.0192688
0.0198417
0.0204219
0.0210115
0.0216187
0.0222421
0.0228765
0.0235217
0.024174
0.0248378
0.0255202
0.026221
0.0269363
0.0276621
0.0283995
0.0291492
0.029918
0.0307046
0.0315082
0.0323231
0.0331543
0.0339985
0.0348632
0.0357416
0.0366405
0.0375518
0.0384835
0.0394262
0.0403916
0.0413692
0.0423694
0.0433803
0.044412
0.045453
0.0465067
0.0475791
0.0486212
0.0496359
0.0506575
0.00565277
0.00266833
-0.00309818
-0.00729151
-0.00779195
-0.00624025
-0.00447828
-0.0030897
-0.00205396
-0.00133481
-0.000952664
-0.000775896
-0.00054726
-0.000141703
0.000338081
0.000748656
0.00105642
0.00127008
0.00144924
0.00173946
0.0021693
0.00259538
0.00294783
0.00328465
0.0036575
0.00406789
0.00446989
0.0048164
0.00512838
0.0054569
0.0057976
0.00611183
0.00639625
0.00669556
0.00704619
0.00743306
0.00782284
0.00821801
0.0086348
0.0090564
0.00945839
0.00984916
0.0102436
0.0106284
0.0109921
0.0113773
0.0118087
0.0122498
0.0126826
0.0131416
0.0136362
0.0141187
0.014579
0.0150659
0.0155642
0.0160455
0.0165457
0.0170719
0.0176007
0.0181439
0.0187042
0.0192691
0.0198419
0.0204221
0.0210117
0.0216189
0.0222423
0.0228767
0.0235219
0.0241742
0.024838
0.0255203
0.0262212
0.0269365
0.0276623
0.0283997
0.0291493
0.0299181
0.0307048
0.0315084
0.0323232
0.0331544
0.0339986
0.0348633
0.0357417
0.0366406
0.0375519
0.0384836
0.0394263
0.0403917
0.0413693
0.0423695
0.0433803
0.044412
0.045453
0.0465068
0.0475791
0.0486212
0.049636
0.0506576
0.00518788
0.00256497
-0.00287684
-0.00703585
-0.00766584
-0.00619375
-0.0044556
-0.0030726
-0.00203961
-0.00132301
-0.000942655
-0.000766943
-0.000539366
-0.000135156
0.000343236
0.000752729
0.00105995
0.00127336
0.00145207
0.00174183
0.0021715
0.0025975
0.00294981
0.00328648
0.00365918
0.00406943
0.00447134
0.00481774
0.00512957
0.005458
0.00579866
0.00611283
0.00639716
0.00669637
0.00704695
0.00743382
0.00782358
0.0082187
0.00863545
0.00905705
0.00945902
0.00984975
0.0102441
0.0106289
0.0109926
0.0113778
0.0118092
0.0122502
0.012683
0.0131419
0.0136366
0.0141191
0.0145793
0.0150663
0.0155646
0.0160458
0.016546
0.0170722
0.017601
0.0181441
0.0187044
0.0192693
0.0198421
0.0204224
0.0210119
0.0216191
0.0222425
0.0228769
0.0235221
0.0241744
0.0248382
0.0255205
0.0262214
0.0269366
0.0276625
0.0283998
0.0291494
0.0299182
0.0307049
0.0315085
0.0323233
0.0331545
0.0339987
0.0348634
0.0357418
0.0366407
0.037552
0.0384837
0.0394264
0.0403918
0.0413693
0.0423696
0.0433804
0.0444121
0.0454531
0.0465069
0.0475792
0.0486213
0.0496361
0.0506577
0.004748
0.00248779
-0.00258365
-0.00669654
-0.00748592
-0.00612785
-0.00442526
-0.00304955
-0.00202017
-0.00130851
-0.000931463
-0.000755953
-0.000527801
-0.000124627
0.000351206
0.000758213
0.00106428
0.00127763
0.00145622
0.00174528
0.00217413
0.00259965
0.00295194
0.00328876
0.00366136
0.00407132
0.00447301
0.0048193
0.00513103
0.00545933
0.00579985
0.0061139
0.00639812
0.00669722
0.00704774
0.00743461
0.00782436
0.00821945
0.00863616
0.00905774
0.00945969
0.0098504
0.0102447
0.0106295
0.0109931
0.0113782
0.0118097
0.0122507
0.0126834
0.0131423
0.013637
0.0141195
0.0145797
0.0150666
0.0155649
0.0160461
0.0165463
0.0170724
0.0176013
0.0181444
0.0187047
0.0192695
0.0198424
0.0204226
0.0210122
0.0216193
0.0222427
0.022877
0.0235223
0.0241746
0.0248383
0.0255207
0.0262215
0.0269368
0.0276626
0.0283999
0.0291496
0.0299183
0.030705
0.0315086
0.0323235
0.0331547
0.0339988
0.0348635
0.0357419
0.0366408
0.0375521
0.0384838
0.0394265
0.0403919
0.0413694
0.0423697
0.0433805
0.0444122
0.0454532
0.046507
0.0475793
0.0486214
0.0496362
0.050658
0.00433889
0.0024058
-0.00227904
-0.00633011
-0.00728332
-0.00605307
-0.00439139
-0.00302193
-0.0019956
-0.00129075
-0.000918572
-0.00074234
-0.000511788
-0.000109293
0.000362713
0.00076567
0.00106993
0.00128383
0.00146312
0.00175116
0.00217786
0.00260198
0.00295438
0.00329182
0.00366439
0.00407374
0.00447499
0.00482127
0.0051331
0.00546124
0.0058014
0.00611519
0.00639928
0.00669826
0.00704864
0.00743547
0.00782526
0.00822034
0.00863699
0.00905853
0.00946048
0.00985116
0.0102454
0.0106301
0.0109937
0.0113788
0.0118102
0.0122512
0.0126839
0.0131428
0.0136375
0.01412
0.0145801
0.015067
0.0155653
0.0160464
0.0165466
0.0170728
0.0176016
0.0181447
0.018705
0.0192698
0.0198426
0.0204228
0.0210124
0.0216195
0.0222429
0.0228773
0.0235225
0.0241748
0.0248385
0.0255208
0.0262217
0.0269369
0.0276628
0.0284001
0.0291497
0.0299185
0.0307051
0.0315087
0.0323236
0.0331548
0.0339989
0.0348636
0.035742
0.0366409
0.0375522
0.0384839
0.0394266
0.040392
0.0413695
0.0423698
0.0433806
0.0444123
0.0454533
0.046507
0.0475794
0.0486215
0.0496363
0.0506584
0.00394392
0.00229182
-0.00198415
-0.00594969
-0.00706486
-0.005973
-0.00435674
-0.00299209
-0.0019675
-0.00127029
-0.000904052
-0.000726666
-0.000492518
-9.04018e-05
0.000376902
0.00077467
0.00107678
0.00129219
0.00147348
0.00176041
0.00218342
0.00260484
0.00295728
0.00329585
0.00366848
0.0040767
0.00447709
0.00482356
0.0051359
0.00546397
0.00580355
0.00611692
0.00640089
0.00669967
0.00704973
0.00743641
0.00782627
0.00822137
0.00863794
0.00905945
0.00946146
0.00985213
0.0102463
0.0106309
0.0109944
0.0113794
0.0118108
0.0122518
0.0126845
0.0131433
0.013638
0.0141205
0.0145806
0.0150674
0.0155657
0.0160468
0.016547
0.0170731
0.0176019
0.018145
0.0187053
0.0192701
0.0198429
0.0204231
0.0210126
0.0216198
0.0222432
0.0228775
0.0235227
0.024175
0.0248387
0.025521
0.0262219
0.0269371
0.0276629
0.0284003
0.0291499
0.0299186
0.0307053
0.0315089
0.0323237
0.0331549
0.033999
0.0348637
0.0357421
0.036641
0.0375523
0.038484
0.0394267
0.0403921
0.0413696
0.0423699
0.0433807
0.0444124
0.0454534
0.0465071
0.0475795
0.0486217
0.0496366
0.0506589
0.00355678
0.00214462
-0.00169941
-0.00555358
-0.00682819
-0.00588631
-0.00432142
-0.00296095
-0.00193661
-0.00124721
-0.000887843
-0.000709559
-0.000471459
-6.96967e-05
0.000392302
0.000784217
0.00108422
0.0013023
0.00148703
0.00177304
0.00219117
0.00260871
0.00296095
0.00330098
0.00367366
0.00408017
0.00447916
0.00482592
0.00513925
0.00546745
0.00580637
0.00611931
0.00640325
0.00670175
0.0070512
0.00743751
0.00782742
0.00822254
0.00863894
0.00906041
0.00946262
0.00985338
0.0102473
0.0106318
0.0109953
0.0113802
0.0118115
0.0122524
0.0126851
0.013144
0.0136387
0.0141211
0.0145812
0.015068
0.0155662
0.0160473
0.0165474
0.0170736
0.0176023
0.0181454
0.0187057
0.0192705
0.0198433
0.0204234
0.0210129
0.0216201
0.0222435
0.0228778
0.023523
0.0241752
0.0248389
0.0255212
0.0262221
0.0269373
0.0276631
0.0284005
0.0291501
0.0299188
0.0307055
0.031509
0.0323239
0.0331551
0.0339992
0.0348639
0.0357422
0.0366411
0.0375524
0.0384841
0.0394268
0.0403922
0.0413697
0.04237
0.0433808
0.0444125
0.0454535
0.0465072
0.0475796
0.0486219
0.0496369
0.0506595
0.00318561
0.00197436
-0.00142404
-0.00514124
-0.0065713
-0.00579174
-0.00428579
-0.00292949
-0.00190339
-0.00122147
-0.00086988
-0.00069137
-0.000449349
-4.79613e-05
0.000408346
0.000793938
0.00109183
0.00131338
0.00150271
0.00178824
0.00220091
0.00261381
0.00296563
0.00330721
0.00367982
0.00408411
0.0044812
0.0048282
0.0051428
0.00547131
0.00580959
0.00612231
0.00640654
0.00670479
0.0070533
0.00743896
0.00782884
0.0082239
0.00863993
0.00906129
0.00946388
0.00985487
0.0102486
0.0106329
0.0109964
0.0113814
0.0118123
0.0122531
0.0126859
0.0131448
0.0136394
0.0141218
0.0145819
0.0150687
0.0155668
0.0160478
0.0165479
0.0170741
0.0176028
0.0181458
0.0187061
0.0192709
0.0198437
0.0204238
0.0210133
0.0216204
0.0222438
0.0228781
0.0235233
0.0241755
0.0248392
0.0255215
0.0262223
0.0269375
0.0276634
0.0284007
0.0291503
0.029919
0.0307056
0.0315092
0.032324
0.0331552
0.0339993
0.034864
0.0357424
0.0366412
0.0375526
0.0384842
0.0394269
0.0403923
0.0413698
0.0423701
0.0433809
0.0444126
0.0454536
0.0465073
0.0475798
0.0486221
0.0496373
0.0506603
0.00284107
0.00178798
-0.00116396
-0.00471685
-0.00629382
-0.00568843
-0.00425021
-0.00289846
-0.00186814
-0.00119288
-0.000850015
-0.000672183
-0.000426409
-2.53196e-05
0.000425143
0.000804074
0.00109965
0.00132494
0.00151953
0.00180503
0.00221215
0.0026201
0.0029713
0.00331437
0.00368677
0.00408848
0.0044833
0.00483044
0.00514635
0.00547512
0.00581279
0.00612564
0.00641067
0.00670888
0.00705623
0.00744094
0.00783069
0.00822556
0.00864094
0.009062
0.00946506
0.00985648
0.0102501
0.0106342
0.010998
0.0113829
0.0118134
0.012254
0.0126868
0.0131457
0.0136401
0.0141226
0.0145828
0.0150695
0.0155676
0.0160485
0.0165486
0.0170747
0.0176033
0.0181464
0.0187067
0.0192714
0.0198442
0.0204243
0.0210137
0.0216208
0.0222442
0.0228785
0.0235236
0.0241758
0.0248395
0.0255218
0.0262226
0.0269378
0.0276636
0.0284009
0.0291505
0.0299192
0.0307058
0.0315094
0.0323242
0.0331554
0.0339995
0.0348642
0.0357426
0.0366414
0.0375527
0.0384844
0.0394271
0.0403925
0.04137
0.0423702
0.043381
0.0444127
0.0454538
0.0465075
0.0475799
0.0486224
0.0496378
0.0506614
0.00253016
0.00158973
-0.000927452
-0.00428604
-0.00599538
-0.00557443
-0.00421397
-0.0028681
-0.00183099
-0.00116125
-0.000828017
-0.00065193
-0.000402651
-1.70932e-06
0.00044291
0.000814925
0.00110786
0.0013368
0.00153694
0.00182282
0.0022245
0.00262737
0.00297783
0.00332229
0.00369433
0.00409323
0.00448558
0.00483275
0.00514989
0.00547874
0.00581569
0.00612892
0.00641532
0.00671388
0.00706002
0.00744354
0.00783305
0.00822765
0.0086421
0.00906257
0.00946604
0.00985798
0.0102515
0.0106357
0.0109999
0.0113848
0.0118149
0.012255
0.0126879
0.0131467
0.0136409
0.0141233
0.0145837
0.0150705
0.0155684
0.0160494
0.0165494
0.0170753
0.017604
0.018147
0.0187073
0.019272
0.0198448
0.0204248
0.0210143
0.0216213
0.0222446
0.0228789
0.0235241
0.0241763
0.0248399
0.0255221
0.026223
0.0269381
0.0276639
0.0284012
0.0291508
0.0299195
0.0307061
0.0315097
0.0323245
0.0331556
0.0339997
0.0348644
0.0357428
0.0366416
0.0375529
0.0384845
0.0394272
0.0403926
0.0413701
0.0423704
0.0433812
0.0444129
0.0454539
0.0465077
0.0475802
0.0486228
0.0496386
0.0506626
0.00225645
0.00138489
-0.000721276
-0.00385446
-0.00567542
-0.00544691
-0.00417576
-0.00283866
-0.00179249
-0.00112663
-0.000803733
-0.000630531
-0.000378052
2.29334e-05
0.000461774
0.000826663
0.00111661
0.00134899
0.00155484
0.00184142
0.00223779
0.0026355
0.00298509
0.00333087
0.00370243
0.00409835
0.00448807
0.00483521
0.00515349
0.00548224
0.00581829
0.00613202
0.00642019
0.00671951
0.00706452
0.00744673
0.00783591
0.00823017
0.00864353
0.00906312
0.00946681
0.00985926
0.0102529
0.0106372