/*--------------------------------*- C++ -*----------------------------------*\
| =========                 |                                                 |
| \\      /  F ield         | OpenFOAM: The Open Source CFD Toolbox           |
|  \\    /   O peration     | Version:  3.0.1                                 |
|   \\  /    A nd           | Web:      www.OpenFOAM.org                      |
|    \\/     M anipulation  |                                                 |
\*---------------------------------------------------------------------------*/
FoamFile
{
    version     2.0;
    format      ascii;
    class       surfaceScalarField;
    location    "3.2";
    object      phi;
}
// * * * * * * * * * * * * * * * * * * * * * * * * * * * * * * * * * * * * * //

dimensions      [0 3 -1 0 0 0 0];

internalField   nonuniform List<scalar> 
19000
(
1.18688e-06
-1.32101e-07
1.15717e-06
6.12953e-07
1.11575e-06
-2.32454e-08
1.16988e-06
-1.00839e-06
1.25345e-06
-5.91301e-07
1.19563e-06
2.25088e-07
1.14406e-06
6.63509e-07
1.14262e-06
6.27884e-07
1.12137e-06
-1.57857e-07
1.13493e-06
-4.7037e-07
1.16625e-06
-4.72388e-07
1.15222e-06
-6.79118e-07
1.18107e-06
-1.36276e-07
1.16126e-06
-4.45113e-07
1.18327e-06
6.99045e-08
1.15316e-06
3.22307e-08
1.1631e-06
3.01654e-07
1.13756e-06
2.79636e-07
1.1279e-06
2.64406e-07
2.38797e-07
1.10012e-06
1.24221e-06
-1.50046e-07
1.22018e-06
6.34977e-07
1.17236e-06
2.45754e-08
1.22072e-06
-1.05675e-06
1.30858e-06
-6.79166e-07
1.25656e-06
2.77115e-07
1.19533e-06
7.24734e-07
1.20547e-06
6.17744e-07
1.18225e-06
-1.34629e-07
1.19389e-06
-4.82011e-07
1.22069e-06
-4.99189e-07
1.20933e-06
-6.6776e-07
1.2328e-06
-1.59747e-07
1.21937e-06
-4.31688e-07
1.23104e-06
5.82422e-08
1.21812e-06
4.5143e-08
1.20403e-06
3.15744e-07
1.20809e-06
2.75578e-07
1.16486e-06
3.0764e-07
2.20853e-07
1.1828e-06
1.2978e-06
-1.65061e-07
1.28766e-06
6.45111e-07
1.23446e-06
7.77759e-08
1.27357e-06
-1.09586e-06
1.36053e-06
-7.66126e-07
1.32444e-06
3.13205e-07
1.25377e-06
7.954e-07
1.2683e-06
6.0322e-07
1.24787e-06
-1.14205e-07
1.25666e-06
-4.90796e-07
1.27623e-06
-5.18759e-07
1.27241e-06
-6.63939e-07
1.28843e-06
-1.75772e-07
1.28471e-06
-4.27968e-07
1.28584e-06
5.71174e-08
1.28381e-06
4.71734e-08
1.26285e-06
3.36704e-07
1.26556e-06
2.72867e-07
1.23764e-06
3.35556e-07
2.31897e-07
1.2266e-06
1.35415e-06
-1.75103e-07
1.35587e-06
6.43388e-07
1.30158e-06
1.32069e-07
1.32995e-06
-1.12423e-06
1.40946e-06
-8.4564e-07
1.3926e-06
3.30071e-07
1.32233e-06
8.65662e-07
1.333e-06
5.92557e-07
1.31818e-06
-9.93825e-08
1.32227e-06
-4.94894e-07
1.33461e-06
-5.31096e-07
1.33682e-06
-6.66151e-07
1.34842e-06
-1.8737e-07
1.34999e-06
-4.29537e-07
1.34843e-06
5.86791e-08
1.34753e-06
4.80706e-08
1.33283e-06
3.514e-07
1.32643e-06
2.79273e-07
1.31313e-06
3.48851e-07
2.52145e-07
1.29289e-06
1.41249e-06
-1.7924e-07
1.42324e-06
6.32636e-07
1.3739e-06
1.81413e-07
1.39036e-06
-1.14069e-06
1.45702e-06
-9.12307e-07
1.4577e-06
3.29394e-07
1.39951e-06
9.23851e-07
1.4027e-06
5.89375e-07
1.39283e-06
-8.95147e-08
1.39149e-06
-4.93558e-07
1.39734e-06
-5.3694e-07
1.40179e-06
-6.706e-07
1.41156e-06
-1.97148e-07
1.41408e-06
-4.32053e-07
1.41343e-06
5.93274e-08
1.41085e-06
5.06497e-08
1.40275e-06
3.59505e-07
1.39242e-06
2.896e-07
1.38497e-06
3.56299e-07
2.71987e-07
1.36513e-06
1.47455e-06
-1.78116e-07
1.49046e-06
6.16733e-07
1.45124e-06
2.20629e-07
1.45511e-06
-1.14456e-06
1.50581e-06
-9.63009e-07
1.52012e-06
3.15082e-07
1.48115e-06
9.62821e-07
1.47862e-06
5.91909e-07
1.47091e-06
-8.18059e-08
1.46481e-06
-4.87457e-07
1.46479e-06
-5.36921e-07
1.4682e-06
-6.74016e-07
1.47701e-06
-2.05954e-07
1.47852e-06
-4.33563e-07
1.47865e-06
5.92001e-08
1.47459e-06
5.47077e-08
1.47074e-06
3.63354e-07
1.45997e-06
3.00368e-07
1.45634e-06
3.59937e-07
2.90124e-07
1.4382e-06
1.5417e-06
-1.73595e-07
1.55961e-06
5.98817e-07
1.53271e-06
2.47532e-07
1.52455e-06
-1.1364e-06
1.55849e-06
-9.96951e-07
1.58215e-06
2.91428e-07
1.56337e-06
9.81596e-07
1.55934e-06
5.9594e-07
1.55152e-06
-7.39863e-08
1.54177e-06
-4.777e-07
1.53665e-06
-5.31804e-07
1.53713e-06
-6.74492e-07
1.54474e-06
-2.13571e-07
1.54465e-06
-4.33473e-07
1.5451e-06
5.87548e-08
1.53995e-06
5.98543e-08
1.53934e-06
3.63968e-07
1.52916e-06
3.10545e-07
1.5295e-06
3.59601e-07
3.06085e-07
1.51354e-06
1.6143e-06
-1.67765e-07
1.63261e-06
5.80503e-07
1.61702e-06
2.63127e-07
1.59897e-06
-1.11835e-06
1.61713e-06
-1.01511e-06
1.64605e-06
2.62505e-07
1.64442e-06
9.83226e-07
1.64248e-06
5.97885e-07
1.63393e-06
-6.54393e-08
1.62168e-06
-4.65447e-07
1.61245e-06
-5.22574e-07
1.60932e-06
-6.7137e-07
1.61523e-06
-2.19475e-07
1.61329e-06
-4.31537e-07
1.61425e-06
5.77953e-08
1.60833e-06
6.57749e-08
1.61093e-06
3.61372e-07
1.60165e-06
3.19821e-07
1.60583e-06
3.55423e-07
3.19328e-07
1.59259e-06
1.69186e-06
-1.62054e-07
1.71014e-06
5.62232e-07
1.70308e-06
2.70184e-07
1.67834e-06
-1.09362e-06
1.68289e-06
-1.01966e-06
1.71347e-06
2.31932e-07
1.72458e-06
9.72113e-07
1.72643e-06
5.96032e-07
1.71764e-06
-5.66472e-08
1.70412e-06
-4.5193e-07
1.6919e-06
-5.10352e-07
1.68529e-06
-6.64759e-07
1.68912e-06
-2.23301e-07
1.68509e-06
-4.27512e-07
1.68707e-06
5.58156e-08
1.68074e-06
7.21086e-08
1.68685e-06
3.55263e-07
1.67871e-06
3.27955e-07
1.68609e-06
3.4805e-07
3.29551e-07
1.67586e-06
1.77366e-06
-1.56995e-07
1.79186e-06
5.44033e-07
1.79046e-06
2.71581e-07
1.76238e-06
-1.06553e-06
1.75613e-06
-1.01341e-06
1.78553e-06
2.02538e-07
1.80518e-06
9.52459e-07
1.81098e-06
5.90231e-07
1.80265e-06
-4.83197e-08
1.78901e-06
-4.38286e-07
1.77496e-06
-4.96301e-07
1.76535e-06
-6.5515e-07
1.76704e-06
-2.24991e-07
1.76068e-06
-4.21149e-07
1.76411e-06
5.23831e-08
1.75768e-06
7.85392e-08
1.76749e-06
3.45457e-07
1.76074e-06
3.34704e-07
1.77033e-06
3.38452e-07
3.3669e-07
1.76319e-06
1.85927e-06
-1.52515e-07
1.87728e-06
5.26024e-07
1.87945e-06
2.69411e-07
1.85068e-06
-1.03677e-06
1.83651e-06
-9.99242e-07
1.86295e-06
1.76094e-07
1.88773e-06
9.27682e-07
1.89684e-06
5.81116e-07
1.88947e-06
-4.09491e-08
1.87648e-06
-4.25295e-07
1.86167e-06
-4.81486e-07
1.8497e-06
-6.4318e-07
1.84951e-06
-2.24804e-07
1.84062e-06
-4.12254e-07
1.84568e-06
4.73183e-08
1.83928e-06
8.49365e-08
1.85256e-06
3.32177e-07
1.84737e-06
3.39898e-07
1.85805e-06
3.27774e-07
3.4076e-07
1.85398e-06
1.94867e-06
-1.48348e-07
1.96626e-06
5.08441e-07
1.97074e-06
2.64929e-07
1.9429e-06
-1.00893e-06
1.92329e-06
-9.79627e-07
1.94603e-06
1.53349e-07
1.97345e-06
9.00266e-07
1.9851e-06
5.69467e-07
1.97892e-06
-3.4771e-08
1.96689e-06
-4.13268e-07
1.95214e-06
-4.66734e-07
1.93841e-06
-6.29457e-07
1.93686e-06
-2.23252e-07
1.92537e-06
-4.00762e-07
1.93195e-06
4.07387e-08
1.92549e-06
9.13926e-08
1.94151e-06
3.16159e-07
1.93795e-06
3.43464e-07
1.94851e-06
3.17206e-07
3.41731e-07
1.94754e-06
2.04211e-06
-1.44274e-07
2.0591e-06
4.91458e-07
2.06517e-06
2.58861e-07
2.03892e-06
-9.82687e-07
2.01572e-06
-9.56425e-07
2.03475e-06
1.34314e-07
2.06322e-06
8.71805e-07
2.07677e-06
5.55913e-07
2.07186e-06
-2.98632e-08
2.06072e-06
-4.02122e-07
2.04655e-06
-4.52565e-07
2.03152e-06
-6.14429e-07
2.02922e-06
-2.20954e-07
2.01524e-06
-3.86785e-07
2.023e-06
3.29783e-08
2.01628e-06
9.81188e-08
2.03392e-06
2.98516e-07
2.03201e-06
3.45378e-07
2.04136e-06
3.07849e-07
3.39539e-07
2.04356e-06
2.13991e-06
-1.40179e-07
2.15629e-06
4.75078e-07
2.16346e-06
2.51684e-07
2.13878e-06
-9.58007e-07
2.11327e-06
-9.30907e-07
2.12902e-06
1.18555e-07
2.15767e-06
8.43162e-07
2.1727e-06
5.40884e-07
2.16906e-06
-2.62228e-08
2.15848e-06
-3.91548e-07
2.14515e-06
-4.39228e-07
2.12906e-06
-5.98344e-07
2.12657e-06
-2.18463e-07
2.11038e-06
-3.70599e-07
2.11891e-06
2.44548e-08
2.11176e-06
1.05264e-07
2.1298e-06
2.80477e-07
2.1296e-06
3.45575e-07
2.13704e-06
3.00416e-07
3.34323e-07
2.14225e-06
2.24234e-06
-1.36031e-07
2.25827e-06
4.59151e-07
2.26618e-06
2.4377e-07
2.24269e-06
-9.34513e-07
2.2157e-06
-9.03916e-07
2.22882e-06
1.05431e-07
2.25731e-06
8.14674e-07
2.27349e-06
5.24706e-07
2.27106e-06
-2.37928e-08
2.26067e-06
-3.81159e-07
2.24821e-06
-4.26775e-07
2.23117e-06
-5.81306e-07
2.22886e-06
-2.16152e-07
2.21085e-06
-3.52582e-07
2.21973e-06
1.55685e-08
2.21222e-06
1.12781e-07
2.22957e-06
2.63128e-07
2.23123e-06
3.43911e-07
2.23657e-06
2.95075e-07
3.26591e-07
2.2443e-06
2.34968e-06
-1.31836e-07
2.36536e-06
4.4347e-07
2.37372e-06
2.35409e-07
2.35093e-06
-9.11716e-07
2.32303e-06
-8.76025e-07
2.33421e-06
9.42543e-08
2.36254e-06
7.86348e-07
2.37957e-06
5.07675e-07
2.37825e-06
-2.24737e-08
2.36767e-06
-3.7058e-07
2.35603e-06
-4.15138e-07
2.33809e-06
-5.63357e-07
2.33612e-06
-2.14188e-07
2.3167e-06
-3.33163e-07
2.3256e-06
6.67295e-09
2.31799e-06
1.20388e-07
2.33383e-06
2.47289e-07
2.33754e-06
3.40199e-07
2.34099e-06
2.91624e-07
3.17078e-07
2.35051e-06
2.46218e-06
-1.27617e-07
2.47779e-06
4.27857e-07
2.4864e-06
2.268e-07
2.46385e-06
-8.89171e-07
2.43547e-06
-8.47636e-07
2.4453e-06
8.44239e-08
2.47364e-06
7.58007e-07
2.49122e-06
4.90087e-07
2.4909e-06
-2.21453e-08
2.47983e-06
-3.59514e-07
2.46888e-06
-4.04189e-07
2.45008e-06
-5.44558e-07
2.44845e-06
-2.12557e-07
2.42808e-06
-3.12794e-07
2.43667e-06
-1.90929e-09
2.4294e-06
1.27648e-07
2.44323e-06
2.33463e-07
2.44909e-06
3.34339e-07
2.45106e-06
2.89651e-07
3.06561e-07
2.46158e-06
2.58008e-06
-1.234e-07
2.59574e-06
4.12199e-07
2.60449e-06
2.18048e-07
2.58185e-06
-8.66534e-07
2.55326e-06
-8.19042e-07
2.56218e-06
7.55023e-08
2.59077e-06
7.29418e-07
2.60863e-06
4.72222e-07
2.60918e-06
-2.26932e-08
2.59743e-06
-3.47766e-07
2.58701e-06
-3.93766e-07
2.56748e-06
-5.25028e-07
2.56604e-06
-2.11116e-07
2.54518e-06
-2.91935e-07
2.55315e-06
-9.88173e-09
2.54671e-06
1.34092e-07
2.55833e-06
2.21839e-07
2.56623e-06
3.2644e-07
2.56729e-06
2.88584e-07
2.95781e-07
2.57807e-06
2.70364e-06
-1.19214e-07
2.71937e-06
3.96467e-07
2.72825e-06
2.0917e-07
2.70528e-06
-8.4356e-07
2.67671e-06
-7.9047e-07
2.68497e-06
6.72434e-08
2.71402e-06
7.00364e-07
2.73192e-06
4.54322e-07
2.73325e-06
-2.40266e-08
2.72075e-06
-3.35261e-07
2.71067e-06
-3.83686e-07
2.6906e-06
-5.04961e-07
2.68911e-06
-2.09626e-07
2.66821e-06
-2.71031e-07
2.67529e-06
-1.69618e-08
2.67006e-06
1.39316e-07
2.67953e-06
2.12369e-07
2.68917e-06
3.16802e-07
2.68996e-06
2.87801e-07
2.85367e-07
2.70037e-06
2.83314e-06
-1.15089e-07
2.84891e-06
3.80698e-07
2.85797e-06
2.00113e-07
2.83449e-06
-8.2008e-07
2.80613e-06
-7.62111e-07
2.81381e-06
5.95632e-08
2.84348e-06
6.70691e-07
2.86123e-06
4.36574e-07
2.86328e-06
-2.60728e-08
2.85005e-06
-3.22032e-07
2.84011e-06
-3.73745e-07
2.81976e-06
-4.84615e-07
2.81795e-06
-2.07819e-07
2.7974e-06
-2.50477e-07
2.80336e-06
-2.29225e-08
2.79959e-06
1.43084e-07
2.80714e-06
2.0482e-07
2.81812e-06
3.05819e-07
2.81915e-06
2.86771e-07
2.75757e-07
2.82876e-06
2.96886e-06
-1.11054e-07
2.98458e-06
3.64979e-07
2.99392e-06
1.90777e-07
2.9698e-06
-7.95965e-07
2.94183e-06
-7.34144e-07
2.94891e-06
5.24822e-08
2.97928e-06
6.40323e-07
2.99676e-06
4.19101e-07
2.99944e-06
-2.87561e-08
2.98561e-06
-3.08207e-07
2.97559e-06
-3.63718e-07
2.95525e-06
-4.64282e-07
2.95287e-06
-2.05431e-07
2.93296e-06
-2.30573e-07
2.93768e-06
-2.76433e-08
2.9354e-06
1.45366e-07
2.94137e-06
1.98856e-07
2.95328e-06
2.93902e-07
2.95495e-06
2.85107e-07
2.67197e-07
2.96351e-06
3.11109e-06
-1.07141e-07
3.12664e-06
3.49427e-07
3.13639e-06
1.81032e-07
3.11153e-06
-7.71109e-07
3.08413e-06
-7.06738e-07
3.09055e-06
4.60633e-08
3.12161e-06
6.09257e-07
3.13875e-06
4.01959e-07
3.14197e-06
-3.1971e-08
3.12776e-06
-2.93995e-07
3.1174e-06
-3.53356e-07
3.09736e-06
-4.44241e-07
3.0942e-06
-2.02273e-07
3.07511e-06
-2.11487e-07
3.07858e-06
-3.11124e-08
3.07767e-06
1.46274e-07
3.08237e-06
1.94159e-07
3.09489e-06
2.81378e-07
3.09744e-06
2.82563e-07
2.59774e-07
3.10486e-06
3.26015e-06
-1.03381e-07
3.2754e-06
3.34177e-07
3.2857e-06
1.70736e-07
3.26001e-06
-7.45422e-07
3.23332e-06
-6.80045e-07
3.23902e-06
4.03625e-08
3.27072e-06
5.77558e-07
3.28754e-06
3.85138e-07
3.29113e-06
-3.55657e-08
3.27679e-06
-2.79654e-07
3.26586e-06
-3.42425e-07
3.24633e-06
-4.2471e-07
3.24231e-06
-1.98253e-07
3.22407e-06
-1.93248e-07
3.22636e-06
-3.34074e-08
3.22667e-06
1.45966e-07
3.23033e-06
1.90505e-07
3.2432e-06
2.68503e-07
3.24681e-06
2.78958e-07
2.53479e-07
3.2531e-06
3.41635e-06
-9.98028e-08
3.43117e-06
3.19361e-07
3.44215e-06
1.59751e-07
3.41557e-06
-7.18837e-07
3.38971e-06
-6.54183e-07
3.39467e-06
3.53976e-08
3.42688e-06
5.45353e-07
3.44346e-06
3.68556e-07
3.44723e-06
-3.93383e-08
3.43304e-06
-2.65464e-07
3.42134e-06
-3.30722e-07
3.40245e-06
-4.05817e-07
3.39758e-06
-1.93383e-07
3.3801e-06
-1.75771e-07
3.38134e-06
-3.46501e-08
3.38272e-06
1.44585e-07
3.38548e-06
1.87747e-07
3.39845e-06
2.55533e-07
3.40332e-06
2.74086e-07
2.48244e-07
3.40856e-06
3.58004e-06
-9.64323e-08
3.5943e-06
3.05105e-07
3.60609e-06
1.47961e-07
3.57858e-06
-6.91326e-07
3.55361e-06
-6.29215e-07
3.55788e-06
3.11274e-08
3.5904e-06
5.12834e-07
3.60689e-06
3.52064e-07
3.61061e-06
-4.30542e-08
3.59683e-06
-2.51693e-07
3.58423e-06
-3.18118e-07
3.56599e-06
-3.87577e-07
3.56038e-06
-1.87776e-07
3.54352e-06
-1.58907e-07
3.5438e-06
-3.49338e-08
3.54619e-06
1.42203e-07
3.54815e-06
1.85786e-07
3.56092e-06
2.4276e-07
3.56728e-06
2.67727e-07
2.43919e-07
3.5716e-06
3.75156e-06
-9.32905e-08
3.76515e-06
2.91516e-07
3.77783e-06
1.35283e-07
3.74942e-06
-6.62916e-07
3.72535e-06
-6.05139e-07
3.72903e-06
2.74429e-08
3.76161e-06
4.80255e-07
3.7782e-06
3.35469e-07
3.78163e-06
-4.64769e-08
3.76849e-06
-2.38559e-07
3.75495e-06
-3.04579e-07
3.73728e-06
-3.69903e-07
3.73112e-06
-1.81615e-07
3.7147e-06
-1.42488e-07
3.71408e-06
-3.43201e-08
3.71743e-06
1.38856e-07
3.71879e-06
1.84432e-07
3.73093e-06
2.30615e-07
3.73893e-06
2.59726e-07
2.40204e-07
3.74265e-06
3.93129e-06
-9.03929e-08
3.94413e-06
2.78675e-07
3.95772e-06
1.21691e-07
3.92851e-06
-6.33704e-07
3.90525e-06
-5.81883e-07
3.90853e-06
2.41688e-08
3.94086e-06
4.47924e-07
3.95778e-06
3.18545e-07
3.9607e-06
-4.93885e-08
3.94834e-06
-2.26201e-07
3.93393e-06
-2.90174e-07
3.91666e-06
-3.52626e-07
3.91014e-06
-1.751e-07
3.89406e-06
-1.26404e-07
3.89255e-06
-3.2816e-08
3.89684e-06
1.34564e-07
3.89783e-06
1.83442e-07
3.90891e-06
2.1954e-07
3.91851e-06
2.50124e-07
2.36603e-07
3.92211e-06
4.11961e-06
-8.77481e-08
4.13166e-06
2.66623e-07
4.14611e-06
1.07237e-07
4.11628e-06
-6.03868e-07
4.09369e-06
-5.59298e-07
4.0968e-06
2.10597e-08
4.12853e-06
4.16194e-07
4.146e-06
3.01075e-07
4.14825e-06
-5.16402e-08
4.1367e-06
-2.14651e-07
4.12159e-06
-2.75063e-07
4.10452e-06
-3.35556e-07
4.09782e-06
-1.68398e-07
4.08206e-06
-1.10649e-07
4.0796e-06
-3.03506e-08
4.08477e-06
1.29391e-07
4.08572e-06
1.82494e-07
4.0954e-06
2.09862e-07
4.10625e-06
2.39272e-07
2.32477e-07
4.11038e-06
4.31691e-06
-8.53567e-08
4.32817e-06
2.55361e-07
4.34336e-06
9.20472e-08
4.31315e-06
-5.73661e-07
4.29104e-06
-5.37179e-07
4.29428e-06
1.78142e-08
4.32503e-06
3.85443e-07
4.34322e-06
2.82884e-07
4.34476e-06
-5.31803e-08
4.33394e-06
-2.03827e-07
4.31833e-06
-2.59449e-07
4.30131e-06
-3.18542e-07
4.29453e-06
-1.61617e-07
4.27917e-06
-9.52865e-08
4.27569e-06
-2.68757e-08
4.28159e-06
1.23491e-07
4.28282e-06
1.8127e-07
4.29098e-06
2.01697e-07
4.30249e-06
2.27767e-07
2.27223e-07
4.30774e-06
4.52363e-06
-8.32091e-08
4.53413e-06
2.44856e-07
4.54985e-06
7.63292e-08
4.5196e-06
-5.43413e-07
4.49769e-06
-5.15262e-07
4.5014e-06
1.40981e-08
4.53083e-06
3.56019e-07
4.5498e-06
2.63911e-07
4.55072e-06
-5.41005e-08
4.54046e-06
-1.9357e-07
4.52455e-06
-2.43542e-07
4.50748e-06
-3.01467e-07
4.50068e-06
-1.54816e-07
4.48583e-06
-8.04395e-08
4.48129e-06
-2.23379e-08
4.48775e-06
1.17037e-07
4.48952e-06
1.79498e-07
4.49623e-06
1.94982e-07
4.50772e-06
2.16278e-07
2.20487e-07
4.51446e-06
4.74019e-06
-8.12827e-08
4.75002e-06
2.35028e-07
4.76597e-06
6.03763e-08
4.73609e-06
-5.13536e-07
4.71406e-06
-4.93233e-07
4.71861e-06
9.55184e-09
4.74641e-06
3.28213e-07
4.76604e-06
2.44281e-07
4.7666e-06
-5.46566e-08
4.75672e-06
-1.83693e-07
4.74069e-06
-2.27507e-07
4.72348e-06
-2.8426e-07
4.7167e-06
-1.48036e-07
4.70249e-06
-6.62293e-08
4.6969e-06
-1.67412e-08
4.70369e-06
1.10246e-07
4.7062e-06
1.76989e-07
4.71169e-06
1.8949e-07
4.72258e-06
2.05388e-07
2.12292e-07
4.73077e-06
4.96705e-06
-7.95389e-08
4.97633e-06
2.25751e-07
4.99214e-06
4.45719e-08
4.96311e-06
-4.84513e-07
4.94062e-06
-4.70738e-07
4.94634e-06
3.83444e-09
4.97236e-06
3.02187e-07
4.99231e-06
2.24334e-07
4.99287e-06
-5.52133e-08
4.98324e-06
-1.74067e-07
4.96718e-06
-2.11447e-07
4.94979e-06
-2.66868e-07
4.94307e-06
-1.4132e-07
4.92957e-06
-5.27273e-08
4.92303e-06
-1.02049e-08
4.92988e-06
1.03396e-07
4.93326e-06
1.73611e-07
4.93782e-06
1.84925e-07
4.94776e-06
1.95452e-07
2.03046e-07
4.95701e-06
5.2047e-06
-7.7921e-08
5.2136e-06
2.16846e-07
5.22877e-06
2.94046e-08
5.20115e-06
-4.56891e-07
5.17787e-06
-4.47462e-07
5.18499e-06
-3.28024e-09
5.20934e-06
2.77832e-07
5.22906e-06
2.0462e-07
5.22993e-06
-5.60895e-08
5.22055e-06
-1.6468e-07
5.2045e-06
-1.95403e-07
5.18691e-06
-2.49272e-07
5.18023e-06
-1.34645e-07
5.16756e-06
-4.00551e-08
5.16015e-06
-2.79668e-09
5.16684e-06
9.67069e-08
5.17117e-06
1.69277e-07
5.17509e-06
1.81008e-07
5.18393e-06
1.86613e-07
1.93332e-07
5.19365e-06
5.45362e-06
-7.63549e-08
5.46239e-06
2.08079e-07
5.4763e-06
1.54933e-08
5.45068e-06
-4.31274e-07
5.42641e-06
-4.23183e-07
5.43491e-06
-1.17891e-08
5.45808e-06
2.54665e-07
5.47694e-06
1.85764e-07
5.47823e-06
-5.73871e-08
5.46918e-06
-1.55625e-07
5.45317e-06
-1.79397e-07
5.43534e-06
-2.31442e-07
5.42866e-06
-1.27967e-07
5.41696e-06
-2.83499e-08
5.40873e-06
5.43582e-09
5.41507e-06
9.03661e-08
5.42045e-06
1.6389e-07
5.42394e-06
1.77527e-07
5.43171e-06
1.78841e-07
1.83696e-07
5.44134e-06
5.71435e-06
-7.47495e-08
5.72326e-06
1.99171e-07
5.73516e-06
3.59354e-09
5.71216e-06
-4.08271e-07
5.68695e-06
-3.97973e-07
5.69641e-06
-2.12552e-08
5.71921e-06
2.3187e-07
5.73675e-06
1.68225e-07
5.73826e-06
-5.89032e-08
5.72966e-06
-1.47023e-07
5.7137e-06
-1.63439e-07
5.69561e-06
-2.13346e-07
5.68884e-06
-1.212e-07
5.67823e-06
-1.77429e-08
5.66937e-06
1.42981e-08
5.67507e-06
8.46639e-08
5.68159e-06
1.57371e-07
5.68489e-06
1.74229e-07
5.69162e-06
1.72109e-07
1.7448e-07
5.70084e-06
5.98745e-06
-7.30076e-08
5.9968e-06
1.89826e-07
6.00577e-06
-5.3839e-09
5.98596e-06
-3.88463e-07
5.96036e-06
-3.72371e-07
5.96987e-06
-3.07652e-08
5.99311e-06
2.08636e-07
6.00933e-06
1.52001e-07
6.01058e-06
-6.01494e-08
6.00244e-06
-1.38887e-07
5.98655e-06
-1.47552e-07
5.96818e-06
-1.94972e-07
5.96121e-06
-1.14233e-07
5.95186e-06
-8.39163e-09
5.94268e-06
2.34784e-08
5.94746e-06
7.98857e-08
5.95508e-06
1.49748e-07
5.95852e-06
1.70787e-07
5.96424e-06
1.66392e-07
1.65867e-07
5.97285e-06
6.27352e-06
-7.10366e-08
6.28358e-06
1.79767e-07
6.28921e-06
-1.10172e-08
6.27246e-06
-3.71713e-07
6.24738e-06
-3.47293e-07
6.25593e-06
-3.93082e-08
6.27994e-06
1.84625e-07
6.2951e-06
1.36837e-07
6.29545e-06
-6.05012e-08
6.28759e-06
-1.31022e-07
6.27202e-06
-1.31985e-07
6.25344e-06
-1.76387e-07
6.24628e-06
-1.07074e-07
6.23837e-06
-4.81678e-10
6.22926e-06
3.25856e-08
6.23289e-06
7.62545e-08
6.24141e-06
1.41232e-07
6.24539e-06
1.66806e-07
6.25016e-06
1.61623e-07
1.57984e-07
6.25804e-06
6.5732e-06
-6.87633e-08
6.58422e-06
1.68744e-07
6.58714e-06
-1.39422e-08
6.57208e-06
-3.56648e-07
6.54859e-06
-3.23809e-07
6.55535e-06
-4.60643e-08
6.57956e-06
1.60418e-07
6.59353e-06
1.22866e-07
6.59246e-06
-5.94352e-08
6.58498e-06
-1.2354e-07
6.57039e-06
-1.174e-07
6.5519e-06
-1.57896e-07
6.54463e-06
-9.97987e-08
6.53836e-06
5.78689e-09
6.5297e-06
4.12415e-08
6.53209e-06
7.38676e-08
6.54116e-06
1.32168e-07
6.54601e-06
1.61951e-07
6.55002e-06
1.5761e-07
1.50975e-07
6.55703e-06
6.88717e-06
-6.61379e-08
6.89937e-06
1.56542e-07
6.90014e-06
-1.4719e-08
6.88553e-06
-3.42037e-07
6.86439e-06
-3.02662e-07
6.86918e-06
-5.08598e-08
6.89239e-06
1.37206e-07
6.90517e-06
1.10089e-07
6.90296e-06
-5.72251e-08
6.89586e-06
-1.16436e-07
6.88261e-06
-1.04155e-07
6.86447e-06
-1.39749e-07
6.85703e-06
-9.2365e-08
6.85245e-06
1.03666e-08
6.84464e-06
4.9057e-08
6.84575e-06
7.27512e-08
6.85494e-06
1.22978e-07
6.86088e-06
1.56015e-07
6.86447e-06
1.54022e-07
1.44953e-07
6.87049e-06
7.21613e-06
-6.3131e-08
7.2298e-06
1.4287e-07
7.2287e-06
-1.36181e-08
7.21373e-06
-3.27067e-07
7.19522e-06
-2.84155e-07
7.19836e-06
-5.39935e-08
7.22031e-06
1.15254e-07
7.23255e-06
9.78519e-08
7.22899e-06
-5.36722e-08
7.22174e-06
-1.09186e-07
7.20973e-06
-9.21428e-08
7.19213e-06
-1.22146e-07
7.18437e-06
-8.46104e-08
7.18132e-06
1.34183e-08
7.17466e-06
5.57158e-08
7.17463e-06
7.27809e-08
7.18344e-06
1.14166e-07
7.19051e-06
1.48945e-07
7.19408e-06
1.50454e-07
1.3992e-07
7.19912e-06
7.56083e-06
-5.97395e-08
7.57644e-06
1.27267e-07
7.57353e-06
-1.07117e-08
7.55771e-06
-3.11244e-07
7.54172e-06
-2.68167e-07
7.54407e-06
-5.63435e-08
7.5643e-06
9.50222e-08
7.57638e-06
8.57721e-08
7.57153e-06
-4.88156e-08
7.5634e-06
-1.01056e-07
7.55256e-06
-8.13077e-08
7.53579e-06
-1.05372e-07
7.52759e-06
-7.64126e-08
7.52574e-06
1.5265e-08
7.52044e-06
6.10192e-08
7.51947e-06
7.37516e-08
7.52748e-06
1.06156e-07
7.53552e-06
1.40908e-07
7.53947e-06
1.46504e-07
1.35713e-07
7.54367e-06
7.92209e-06
-5.60142e-08
7.93934e-06
1.10018e-07
7.93567e-06
-7.05066e-09
7.91848e-06
-2.94054e-07
7.90515e-06
-2.54837e-07
7.90742e-06
-5.86078e-08
7.92692e-06
7.55176e-08
7.93869e-06
7.4008e-08
7.93104e-06
-4.11667e-08
7.92166e-06
-9.16766e-08
7.91192e-06
-7.15701e-08
7.89625e-06
-8.97041e-08
7.88758e-06
-6.77411e-08
7.88651e-06
1.63367e-08
7.88266e-06
6.48657e-08
7.88105e-06
7.53679e-08
7.88793e-06
9.92749e-08
7.89662e-06
1.3222e-07
7.90125e-06
1.41875e-07
1.32034e-07
7.90492e-06
8.30071e-06
-5.20409e-08
8.31873e-06
9.19974e-08
8.3163e-06
-4.62129e-09
8.29781e-06
-2.75562e-07
8.28649e-06
-2.43525e-07
8.2885e-06
-6.06126e-08
8.30694e-06
5.70717e-08
8.31631e-06
6.46434e-08
8.30734e-06
-3.2193e-08
8.29756e-06
-8.19002e-08
8.28871e-06
-6.27161e-08
8.27415e-06
-7.51535e-08
8.26516e-06
-5.87424e-08
8.26447e-06
1.70264e-08
8.26207e-06
6.72631e-08
8.26015e-06
7.72829e-08
8.26571e-06
9.37235e-08
8.27464e-06
1.23284e-07
8.28009e-06
1.36426e-07
1.28521e-07
8.2836e-06
8.69754e-06
-4.79224e-08
8.71579e-06
7.37469e-08
8.71495e-06
-3.77598e-09
8.69626e-06
-2.56876e-07
8.68474e-06
-2.32003e-07
8.68147e-06
-5.73387e-08
8.69204e-06
4.6498e-08
8.7044e-06
5.22879e-08
8.70105e-06
-2.88489e-08
8.69211e-06
-7.29545e-08
8.68367e-06
-5.42837e-08
8.67015e-06
-6.16266e-08
8.66105e-06
-4.96444e-08
8.66047e-06
1.76016e-08
8.65942e-06
6.83145e-08
8.65761e-06
7.90978e-08
8.66179e-06
8.9539e-08
8.67056e-06
1.1451e-07
8.67683e-06
1.30158e-07
1.24866e-07
8.68049e-06
9.11349e-06
-4.37965e-08
9.1314e-06
5.58445e-08
9.13166e-06
-4.04238e-09
9.10898e-06
-2.34194e-07
9.09412e-06
-2.1714e-07
9.09346e-06
-5.66772e-08
9.104e-06
3.59532e-08
9.11612e-06
4.01663e-08
9.11421e-06
-2.69362e-08
9.10587e-06
-6.46143e-08
9.09772e-06
-4.61338e-08
9.08521e-06
-4.91199e-08
9.07612e-06
-4.0549e-08
9.07551e-06
1.82107e-08
9.07559e-06
6.82368e-08
9.0742e-06
8.04849e-08
9.07714e-06
8.65986e-08
9.08534e-06
1.06314e-07
9.0923e-06
1.23195e-07
1.20862e-07
9.0963e-06
9.54948e-06
-3.98123e-08
9.56604e-06
3.92818e-08
9.5677e-06
-5.70034e-09
9.54392e-06
-2.10419e-07
9.53024e-06
-2.03456e-07
9.53014e-06
-5.65803e-08
9.53848e-06
2.76128e-08
9.54846e-06
3.01899e-08
9.54729e-06
-2.57734e-08
9.53957e-06
-5.68919e-08
9.53185e-06
-3.84161e-08
9.52033e-06
-3.75918e-08
9.5113e-06
-3.15198e-08
9.51051e-06
1.89937e-08
9.51148e-06
6.72705e-08
9.51075e-06
8.12134e-08
9.51271e-06
8.46426e-08
9.51998e-06
9.9047e-08
9.52739e-06
1.15783e-07
1.16368e-07
9.53188e-06
1.00064e-05
-3.60834e-08
1.00211e-05
2.46171e-08
1.00247e-05
-9.35507e-09
1.00014e-05
-1.87094e-07
9.98713e-06
-1.89185e-07
9.98748e-06
-5.69348e-08
9.99423e-06
2.08706e-08
1.00021e-05
2.23492e-08
1.00011e-05
-2.48012e-08
9.99413e-06
-4.99248e-08
9.98698e-06
-3.12649e-08
9.9764e-06
-2.70107e-08
9.96753e-06
-2.26549e-08
9.96649e-06
2.00342e-08
9.9681e-06
6.56619e-08
9.96814e-06
8.11766e-08
9.96946e-06
8.33175e-08
9.97558e-06
9.29232e-08
9.9831e-06
1.08265e-07
1.11321e-07
9.98815e-06
1.04853e-05
-3.27275e-08
1.0498e-05
1.19062e-08
1.05032e-05
-1.45925e-08
1.04811e-05
-1.64951e-07
1.04659e-05
-1.73973e-07
1.04664e-05
-5.74224e-08
1.04721e-05
1.50849e-08
1.04779e-05
1.655e-08
1.04767e-05
-2.35347e-08
1.04705e-05
-4.3709e-08
1.0464e-05
-2.48075e-08
1.04544e-05
-1.74295e-08
1.04458e-05
-1.40522e-08
1.04445e-05
2.13769e-08
1.04465e-05
6.36685e-08
1.04473e-05
8.03532e-08
1.04484e-05
8.22666e-08
1.04533e-05
8.79612e-08
1.04606e-05
1.01e-07
1.05774e-07
1.04661e-05
1.09871e-05
-2.98327e-08
1.09977e-05
1.28419e-09
1.10042e-05
-2.10266e-08
1.09836e-05
-1.4436e-07
1.09674e-05
-1.57786e-07
1.09677e-05
-5.77483e-08
1.09731e-05
9.75095e-09
1.09772e-05
1.24498e-08
1.09753e-05
-2.16723e-08
1.09697e-05
-3.80687e-08
1.0964e-05
-1.91227e-08
1.09554e-05
-8.89863e-09
1.09472e-05
-5.84139e-09
1.09456e-05
2.30306e-08
1.09477e-05
6.15304e-08
1.09492e-05
7.8832e-08
1.09503e-05
8.11704e-08
1.09543e-05
8.40116e-08
1.0961e-05
9.43013e-08
9.98736e-08
1.09669e-05
1.1513e-05
-2.74542e-08
1.15214e-05
-7.15348e-09
1.15285e-05
-2.80816e-08
1.15096e-05
-1.25458e-07
1.14927e-05
-1.40871e-07
1.14927e-05
-5.77517e-08
1.14979e-05
4.46892e-09
1.15008e-05
9.57531e-09
1.14982e-05
-1.90557e-08
1.14928e-05
-3.27098e-08
1.14879e-05
-1.41554e-08
1.14805e-05
-1.51289e-09
1.14728e-05
1.85335e-09
1.14709e-05
2.49636e-08
1.1473e-05
5.93823e-08
1.14751e-05
7.67748e-08
1.14764e-05
7.98264e-08
1.14796e-05
8.08142e-08
1.14855e-05
8.83776e-08
9.38571e-08
1.14916e-05
1.20639e-05
-2.55641e-08
1.20701e-05
-1.33472e-08
1.20769e-05
-3.48925e-08
1.206e-05
-1.0853e-07
1.2043e-05
-1.23861e-07
1.20424e-05
-5.7183e-08
1.20478e-05
-8.75122e-10
1.205e-05
7.39063e-09
1.20466e-05
-1.57205e-08
1.20412e-05
-2.73301e-08
1.20369e-05
-9.80539e-09
1.20307e-05
4.66808e-09
1.20237e-05
8.8994e-09
1.20215e-05
2.71125e-08
1.20236e-05
5.73375e-08
1.2026e-05
7.43697e-08
1.20276e-05
7.81716e-08
1.20304e-05
7.80723e-08
1.20355e-05
8.32786e-08
8.80009e-08
1.20413e-05
1.26411e-05
-2.40896e-08
1.26448e-05
-1.70636e-08
1.26503e-05
-4.03363e-08
1.26363e-05
-9.4599e-08
1.262e-05
-1.075e-07
1.26184e-05
-5.55937e-08
1.26237e-05
-6.13306e-09
1.26256e-05
5.4205e-09
1.26218e-05
-1.18861e-08
1.26162e-05
-2.17644e-08
1.26123e-05
-5.86394e-09
1.26072e-05
9.75255e-09
1.2601e-05
1.51311e-08
1.25987e-05
2.94153e-08
1.26005e-05
5.54612e-08
1.26032e-05
7.17296e-08
1.26051e-05
7.62233e-08
1.26077e-05
7.55337e-08
1.26121e-05
7.88858e-08
8.25428e-08
1.26175e-05
1.32458e-05
-2.29293e-08
1.32468e-05
-1.80841e-08
1.32508e-05
-4.43596e-08
1.32403e-05
-8.40683e-08
1.3225e-05
-9.22594e-08
1.32221e-05
-5.2637e-08
1.32268e-05
-1.08284e-08
1.32289e-05
3.32359e-09
1.32249e-05
-7.90655e-09
1.32191e-05
-1.59745e-08
1.32154e-05
-2.10439e-09
1.32112e-05
1.38733e-08
1.32059e-05
2.04726e-08
1.32036e-05
3.17304e-08
1.32052e-05
5.38035e-08
1.3208e-05
6.89333e-08
1.32102e-05
7.40067e-08
1.32127e-05
7.30959e-08
1.32166e-05
7.50081e-08
7.76456e-08
1.32215e-05
1.38792e-05
-2.19894e-08
1.3879e-05
-1.78178e-08
1.38811e-05
-4.64818e-08
1.38731e-05
-7.61374e-08
1.38594e-05
-7.84947e-08
1.3855e-05
-4.82459e-08
1.38586e-05
-1.44242e-08
1.38609e-05
1.05802e-09
1.38572e-05
-4.219e-09
1.38513e-05
-1.00773e-08
1.38475e-05
1.70859e-09
1.38442e-05
1.71523e-08
1.38397e-05
2.49268e-08
1.38375e-05
3.39153e-08
1.3839e-05
5.23663e-08
1.38418e-05
6.61091e-08
1.38443e-05
7.15514e-08
1.38466e-05
7.07333e-08
1.38502e-05
7.14706e-08
7.3269e-08
1.38545e-05
1.45428e-05
-2.11452e-08
1.45417e-05
-1.66951e-08
1.45421e-05
-4.68534e-08
1.45361e-05
-7.0136e-08
1.45242e-05
-6.65922e-08
1.45186e-05
-4.26641e-08
1.45206e-05
-1.6477e-08
1.45229e-05
-1.16398e-09
1.45198e-05
-1.16029e-09
1.4514e-05
-4.3135e-09
1.45101e-05
5.63299e-09
1.45074e-05
1.9859e-08
1.45038e-05
2.85099e-08
1.45018e-05
3.59041e-08
1.45031e-05
5.11031e-08
1.45059e-05
6.33376e-08
1.45085e-05
6.89023e-08
1.45109e-05
6.83813e-08
1.45141e-05
6.82022e-08
6.9247e-08
1.45182e-05
1.5238e-05
-2.02833e-08
1.52369e-05
-1.5548e-08
1.52354e-05
-4.54168e-08
1.52304e-05
-6.51355e-08
1.52206e-05
-5.67175e-08
1.52143e-05
-3.63779e-08
1.52146e-05
-1.68246e-08
1.52164e-05
-2.93684e-09
1.52141e-05
1.18457e-09
1.52088e-05
9.69084e-10
1.52048e-05
9.62177e-09
1.52024e-05
2.22578e-08
1.51996e-05
3.12932e-08
1.51979e-05
3.76151e-08
1.5199e-05
4.99872e-08
1.52017e-05
6.06237e-08
1.52045e-05
6.61227e-08
1.52069e-05
6.5961e-08
1.52099e-05
6.51946e-08
6.5474e-08
1.52137e-05
1.59664e-05
-1.93143e-08
1.59655e-05
-1.4668e-08
1.59626e-05
-4.24938e-08
1.59578e-05
-6.03756e-08
1.59499e-05
-4.88104e-08
1.59435e-05
-2.99703e-08
1.59422e-05
-1.55256e-08
1.59431e-05
-3.8851e-09
1.59414e-05
2.91839e-09
1.59368e-05
5.52144e-09
1.59329e-05
1.35584e-08
1.59307e-05
2.44658e-08
1.59286e-05
3.34338e-08
1.59272e-05
3.89684e-08
1.59282e-05
4.90095e-08
1.59308e-05
5.80026e-08
1.59337e-05
6.32507e-08
1.59362e-05
6.34438e-08
1.5939e-05
6.23961e-08
6.19355e-08
1.59425e-05
1.67295e-05
-1.81866e-08
1.67287e-05
-1.38709e-08
1.67248e-05
-3.86275e-08
1.67199e-05
-5.54405e-08
1.67136e-05
-4.25623e-08
1.67076e-05
-2.39846e-08
1.6705e-05
-1.28581e-08
1.67048e-05
-3.74835e-09
1.67035e-05
4.30191e-09
1.66997e-05
9.27688e-09
1.6696e-05
1.72238e-08
1.6694e-05
2.65205e-08
1.66923e-05
3.50745e-08
1.66913e-05
3.99683e-08
1.66923e-05
4.80899e-08
1.66947e-05
5.55512e-08
1.66976e-05
6.03148e-08
1.67003e-05
6.08211e-08
1.67029e-05
5.97289e-08
5.86327e-08
1.67062e-05
1.75291e-05
-1.6905e-08
1.75285e-05
-1.32869e-08
1.7524e-05
-3.41294e-08
1.75185e-05
-4.99528e-08
1.75134e-05
-3.74706e-08
1.75082e-05
-1.87447e-08
1.75046e-05
-9.29631e-09
1.75033e-05
-2.4648e-09
1.75019e-05
5.6864e-09
1.74989e-05
1.22748e-08
1.74957e-05
2.04355e-08
1.74938e-05
2.84444e-08
1.74926e-05
3.62897e-08
1.74919e-05
4.06849e-08
1.74928e-05
4.71511e-08
1.74951e-05
5.32594e-08
1.7498e-05
5.74024e-08
1.75008e-05
5.805e-08
1.75034e-05
5.7129e-08
5.55427e-08
1.75065e-05
1.83669e-05
-1.55011e-08
1.83663e-05
-1.26648e-08
1.83617e-05
-2.94823e-08
1.83556e-05
-4.38781e-08
1.83511e-05
-3.29381e-08
1.83467e-05
-1.43685e-08
1.83427e-05
-5.33632e-09
1.83404e-05
-1.65433e-10
1.83387e-05
7.39709e-09
1.83363e-05
1.4674e-08
1.83337e-05
2.30779e-08
1.83319e-05
3.01842e-08
1.83311e-05
3.71634e-08
1.83306e-05
4.11236e-08
1.83315e-05
4.6227e-08
1.83338e-05
5.10507e-08
1.83366e-05
5.4608e-08
1.83395e-05
5.51495e-08
1.83421e-05
5.45089e-08
5.26454e-08
1.8345e-05