/*--------------------------------*- C++ -*----------------------------------*\
| =========                 |                                                 |
| \\      /  F ield         | OpenFOAM: The Open Source CFD Toolbox           |
|  \\    /   O peration     | Version:  3.0.1                                 |
|   \\  /    A nd           | Web:      www.OpenFOAM.org                      |
|    \\/     M anipulation  |                                                 |
\*---------------------------------------------------------------------------*/
FoamFile
{
    version     2.0;
    format      ascii;
    class       volVectorField;
    location    "3.2";
    object      U;
}
// * * * * * * * * * * * * * * * * * * * * * * * * * * * * * * * * * * * * * //

dimensions      [0 1 -1 0 0 0 0];

internalField   nonuniform List<vector> 
9600
(
(0.824106 -0.00118131 0)
(1.19229 0.00650773 0)
(0.805182 -0.000670222 0)
(1.09136 -0.0125508 0)
(0.917944 -0.0074054 0)
(1.21822 0.00285351 0)
(0.841151 0.0105144 0)
(1.10323 0.0113741 0)
(0.86594 -0.00344921 0)
(1.04598 -0.0099416 0)
(0.900921 -0.0105063 0)
(1.08882 -0.0175517 0)
(0.891114 -0.00315642 0)
(1.12067 -0.0138167 0)
(0.876241 0.00283832 0)
(1.13884 0.000244426 0)
(0.846962 0.0118387 0)
(1.13041 0.0114532 0)
(0.822188 0.0113919 0)
(1.09931 0.0119778 0)
(0.834791 -0.00142562 0)
(1.18013 0.00677 0)
(0.828717 9.38725e-06 0)
(1.07469 -0.0133681 0)
(0.924864 -0.00899072 0)
(1.20452 0.0037047 0)
(0.861372 0.011464 0)
(1.07978 0.0113118 0)
(0.899802 -0.00287473 0)
(1.02602 -0.010211 0)
(0.926763 -0.0114662 0)
(1.06311 -0.0171159 0)
(0.918657 -0.00418537 0)
(1.08776 -0.0131914 0)
(0.911047 0.00203685 0)
(1.09303 0.00145868 0)
(0.904346 0.0120353 0)
(1.05611 0.0114715 0)
(0.92139 0.013655 0)
(0.97958 0.01028 0)
(0.855591 -0.00160921 0)
(1.15536 0.00703583 0)
(0.86512 0.000624732 0)
(1.0503 -0.0140145 0)
(0.939087 -0.0102938 0)
(1.17562 0.00458801 0)
(0.899534 0.0126955 0)
(1.04666 0.0111124 0)
(0.93803 -0.00242827 0)
(1.00456 -0.0105192 0)
(0.954901 -0.0119967 0)
(1.03315 -0.0169648 0)
(0.954092 -0.00474708 0)
(1.0501 -0.0129471 0)
(0.956387 0.0017497 0)
(1.04496 0.00169793 0)
(0.96015 0.012617 0)
(1.00603 0.0115739 0)
(0.968251 0.0150582 0)
(0.9607 0.0109295 0)
(0.883426 -0.00172793 0)
(1.12167 0.00709354 0)
(0.905502 0.00125789 0)
(1.02477 -0.0144492 0)
(0.956179 -0.0114292 0)
(1.13695 0.00504435 0)
(0.941907 0.0139077 0)
(1.02009 0.010865 0)
(0.96824 -0.00210376 0)
(0.992048 -0.0106664 0)
(0.974226 -0.0123372 0)
(1.01172 -0.016992 0)
(0.978966 -0.00505604 0)
(1.02476 -0.0130103 0)
(0.985437 0.00189534 0)
(1.01947 0.00166938 0)
(0.987449 0.0134573 0)
(0.994019 0.0117662 0)
(0.981003 0.0157332 0)
(0.971126 0.012268 0)
(0.913542 -0.00179326 0)
(1.08531 0.00700862 0)
(0.942314 0.00188634 0)
(1.00474 -0.0147311 0)
(0.970336 -0.0124477 0)
(1.09694 0.00512335 0)
(0.976592 0.0149996 0)
(1.00734 0.0107334 0)
(0.988048 -0.00186738 0)
(0.98975 -0.0106854 0)
(0.984467 -0.0125516 0)
(1.00089 -0.0170861 0)
(0.990449 -0.00533959 0)
(1.01217 -0.013071 0)
(0.996711 0.00199613 0)
(1.00938 0.0017116 0)
(0.995836 0.014004 0)
(0.994051 0.0120269 0)
(0.985613 0.0162664 0)
(0.9784 0.0133951 0)
(0.941119 -0.00180253 0)
(1.05289 0.0068527 0)
(0.970934 0.00242525 0)
(0.99365 -0.0148554 0)
(0.978374 -0.0132698 0)
(1.0624 0.00498051 0)
(0.998815 0.0158364 0)
(1.00621 0.0107494 0)
(1.00054 -0.00169227 0)
(0.993264 -0.0105959 0)
(0.990047 -0.0126171 0)
(0.996631 -0.0171832 0)
(0.993706 -0.00560642 0)
(1.00626 -0.0131009 0)
(0.998399 0.00197448 0)
(1.00424 0.00186429 0)
(0.996433 0.0141829 0)
(0.993967 0.0124559 0)
(0.988057 0.0166024 0)
(0.982292 0.0142875 0)
(0.962852 -0.00176811 0)
(1.02878 0.00666078 0)
(0.990372 0.00282067 0)
(0.990855 -0.0148101 0)
(0.980886 -0.0138543 0)
(1.03609 0.0046863 0)
(1.00972 0.0163311 0)
(1.0105 0.0108318 0)
(1.00895 -0.00153298 0)
(0.998343 -0.010413 0)
(0.993984 -0.0125485 0)
(0.995285 -0.0172294 0)
(0.993501 -0.00583716 0)
(1.00258 -0.0131138 0)
(0.996535 0.00195601 0)
(1.00012 0.00204221 0)
(0.994583 0.0142206 0)
(0.992799 0.0129534 0)
(0.989345 0.016646 0)
(0.985202 0.0150911 0)
(0.977717 -0.00171242 0)
(1.01384 0.00645742 0)
(1.00214 0.00307038 0)
(0.99319 -0.0146165 0)
(0.980647 -0.0142137 0)
(1.01744 0.00427584 0)
(1.0129 0.016494 0)
(1.01521 0.0108915 0)
(1.01469 -0.00136454 0)
(1.00284 -0.0101638 0)
(0.997231 -0.0123722 0)
(0.995038 -0.017189 0)
(0.992352 -0.00602448 0)
(0.999332 -0.0130846 0)
(0.993792 0.00194484 0)
(0.996452 0.0022357 0)
(0.992489 0.0141817 0)
(0.991694 0.0133975 0)
(0.990412 0.0164814 0)
(0.988029 0.0158314 0)
(0.986642 -0.0016536 0)
(1.0061 0.00625454 0)
(1.00853 0.00320069 0)
(0.997298 -0.0143225 0)
(0.980284 -0.0143673 0)
(1.00464 0.00380832 0)
(1.01187 0.0163938 0)
(1.01808 0.0108884 0)
(1.01809 -0.00118797 0)
(1.00604 -0.00987778 0)
(0.99992 -0.0121122 0)
(0.995192 -0.0170582 0)
(0.991282 -0.00615866 0)
(0.996208 -0.0129985 0)
(0.991119 0.00190269 0)
(0.993363 0.00245832 0)
(0.990985 0.014015 0)
(0.991309 0.013777 0)
(0.991847 0.0161834 0)
(0.990989 0.0164422 0)
(0.991496 -0.00160028 0)
(1.00264 0.00605327 0)
(1.01155 0.00324488 0)
(1.00106 -0.013973 0)
(0.981029 -0.0143488 0)
(0.996088 0.00333774 0)
(1.00907 0.0161133 0)
(1.01883 0.0108145 0)
(1.01946 -0.0010169 0)
(1.00788 -0.00958035 0)
(1.00202 -0.011797 0)
(0.995523 -0.0168471 0)
(0.990615 -0.00623109 0)
(0.993399 -0.0128462 0)
(0.988841 0.00181352 0)
(0.990933 0.00270033 0)
(0.990203 0.01369 0)
(0.991669 0.0141065 0)
(0.993667 0.0157734 0)
(0.993934 0.0168788 0)
(0.994076 -0.00155338 0)
(1.00112 0.00585296 0)
(1.01257 0.00323428 0)
(1.0037 -0.0136034 0)
(0.982845 -0.014201 0)
(0.990634 0.0028985 0)
(1.0059 0.0157252 0)
(1.01804 0.0106705 0)
(1.01935 -0.000864692 0)
(1.00858 -0.00929256 0)
(1.00352 -0.011454 0)
(0.995952 -0.0165687 0)
(0.990381 -0.0062471 0)
(0.991153 -0.0126179 0)
(0.987069 0.00166983 0)
(0.98913 0.00294222 0)
(0.989919 0.0132158 0)
(0.992391 0.0143742 0)
(0.99548 0.0152852 0)
(0.996478 0.0171418 0)
(0.995581 -0.0015108 0)
(1.00026 0.00565632 0)
(1.01249 0.00318975 0)
(1.00529 -0.0132397 0)
(0.985154 -0.0139602 0)
(0.98741 0.00251468 0)
(1.00298 0.015277 0)
(1.01642 0.0104708 0)
(1.01837 -0.000733915 0)
(1.00852 -0.00902604 0)
(1.00443 -0.0111036 0)
(0.996419 -0.0162393 0)
(0.990465 -0.00621883 0)
(0.989614 -0.0123086 0)
(0.985818 0.00146878 0)
(0.987848 0.00317831 0)
(0.989807 0.0126152 0)
(0.992987 0.0145701 0)
(0.996808 0.0147804 0)
(0.99823 0.0172379 0)
(0.996599 -0.00146982 0)
(0.999593 0.00546601 0)
(1.0119 0.00312291 0)
(1.00613 -0.0128931 0)
(0.987402 -0.013657 0)
(0.98569 0.00219135 0)
(1.00054 0.0148021 0)
(1.0145 0.0102328 0)
(1.01705 -0.000626027 0)
(1.00805 -0.00878028 0)
(1.00487 -0.0107621 0)
(0.99687 -0.0158733 0)
(0.990702 -0.00616193 0)
(0.98876 -0.0119182 0)
(0.985047 0.00121702 0)
(0.986961 0.00341934 0)
(0.989641 0.0119285 0)
(0.993142 0.0146904 0)
(0.997391 0.0143204 0)
(0.999033 0.0171702 0)
(0.997344 -0.00142887 0)
(0.999055 0.00528292 0)
(1.01117 0.0030413 0)
(1.00651 -0.0125666 0)
(0.989277 -0.013312 0)
(0.98491 0.00192486 0)
(0.998608 0.0143208 0)
(1.01264 0.00996809 0)
(1.01572 -0.00054324 0)
(1.00744 -0.00854861 0)
(1.00499 -0.0104403 0)
(0.997265 -0.0154767 0)
(0.990964 -0.00609663 0)
(0.98843 -0.0114519 0)
(0.98468 0.000932507 0)
(0.986362 0.00367628 0)
(0.989369 0.0112104 0)
(0.992829 0.0147249 0)
(0.997288 0.0139467 0)
(0.999037 0.0169495 0)
(0.997889 -0.00138743 0)
(0.998662 0.00510619 0)
(1.0105 0.00294995 0)
(1.00661 -0.0122572 0)
(0.990688 -0.0129396 0)
(0.984687 0.00170552 0)
(0.997185 0.0138426 0)
(1.01102 0.00968168 0)
(1.01458 -0.000484508 0)
(1.00685 -0.0083239 0)
(1.00492 -0.0101408 0)
(0.997583 -0.0150522 0)
(0.99119 -0.00603271 0)
(0.988416 -0.0109261 0)
(0.984628 0.000633301 0)
(0.985982 0.00394723 0)
(0.989067 0.0105129 0)
(0.992235 0.0146701 0)
(0.99677 0.0136781 0)
(0.998586 0.0165974 0)
(0.998273 -0.00134557 0)
(0.99841 0.00493365 0)
(1.00996 0.00285238 0)
(1.00653 -0.0119592 0)
(0.991684 -0.0125503 0)
(0.984788 0.00152174 0)
(0.996243 0.0133691 0)
(1.00974 0.00937708 0)
(1.01366 -0.000447468 0)
(1.00634 -0.00809911 0)
(1.00477 -0.00986095 0)
(0.997828 -0.0146034 0)
(0.991372 -0.00597556 0)
(0.988549 -0.0103544 0)
(0.984806 0.000329905 0)
(0.985783 0.00422106 0)
(0.988845 0.00987229 0)
(0.991604 0.0145293 0)
(0.996135 0.0135099 0)
(0.998023 0.016148 0)
(0.998538 -0.00130315 0)
(0.998275 0.00476242 0)
(1.00954 0.00275107 0)
(1.00636 -0.0116671 0)
(0.992368 -0.012151 0)
(0.985077 0.00136248 0)
(0.995714 0.0128974 0)
(1.0088 0.00906069 0)
(1.01295 -0.000432443 0)
(1.00593 -0.00786381 0)
(1.00459 -0.00960213 0)
(0.998013 -0.0141284 0)
(0.991526 -0.00593193 0)
(0.988737 -0.00974385 0)
(0.985143 3.75461e-05 0)
(0.98575 0.00448505 0)
(0.988776 0.0093068 0)
(0.991122 0.0143032 0)
(0.995592 0.0134189 0)
(0.997579 0.015643 0)
(0.998717 -0.00126046 0)
(0.998225 0.00459085 0)
(1.00919 0.002648 0)
(1.00614 -0.0113759 0)
(0.992848 -0.0117471 0)
(0.985475 0.00121915 0)
(0.995497 0.0124238 0)
(1.00813 0.0087382 0)
(1.0124 -0.000437069 0)
(1.0056 -0.00761387 0)
(1.00441 -0.00935887 0)
(0.998161 -0.0136333 0)
(0.991669 -0.0058958 0)
(0.98894 -0.00911262 0)
(0.985587 -0.000232096 0)
(0.985871 0.00472218 0)
(0.98888 0.00882564 0)
(0.990876 0.0139949 0)
(0.995231 0.0133706 0)
(0.997345 0.0151146 0)
(0.998834 -0.00121813 0)
(0.998236 0.00441863 0)
(1.00888 0.00254427 0)
(1.00591 -0.0110814 0)
(0.993203 -0.0113424 0)
(0.985941 0.00108752 0)
(0.995477 0.0119436 0)
(1.00767 0.00841381 0)
(1.01193 -0.000458245 0)
(1.00533 -0.00735062 0)
(1.00422 -0.00912151 0)
(0.998293 -0.0131251 0)
(0.99181 -0.0058597 0)
(0.989154 -0.00847892 0)
(0.986099 -0.000472495 0)
(0.986126 0.00491524 0)
(0.989129 0.00842945 0)
(0.990864 0.0136154 0)
(0.99505 0.0133346 0)
(0.997311 0.0145877 0)
(0.998901 -0.00117617 0)
(0.998296 0.00424563 0)
(1.00858 0.00243819 0)
(1.00569 -0.0107809 0)
(0.993485 -0.0109396 0)
(0.986454 0.000965898 0)
(0.995554 0.0114523 0)
(1.00733 0.00809201 0)
(1.01148 -0.000495561 0)
(1.0051 -0.00707028 0)
(1.00402 -0.00889088 0)
(0.998427 -0.0126036 0)
(0.99195 -0.00581579 0)
(0.989381 -0.0078555 0)
(0.986648 -0.00067817 0)
(0.986487 0.00505886 0)
(0.989475 0.00811026 0)
(0.991039 0.0131799 0)
(0.994999 0.013292 0)
(0.997415 0.0140867 0)
(0.998925 -0.00113498 0)
(0.998399 0.00407268 0)
(1.00826 0.00232896 0)
(1.00551 -0.0104731 0)
(0.99372 -0.0105422 0)
(0.987005 0.000854691 0)
(0.995665 0.0109486 0)
(1.00705 0.00777412 0)
(1.01104 -0.000545772 0)
(1.00488 -0.00677459 0)
(1.00381 -0.00866118 0)
(0.998571 -0.01208 0)
(0.99209 -0.00575526 0)
(0.989625 -0.00724937 0)
(0.987213 -0.000842051 0)
(0.986926 0.00515783 0)
(0.989867 0.00785154 0)
(0.991338 0.0126996 0)
(0.995021 0.0132312 0)
(0.997587 0.0136342 0)
(0.998912 -0.00109474 0)
(0.998535 0.00390057 0)
(1.00791 0.0022162 0)
(1.00534 -0.0101557 0)
(0.993925 -0.0101532 0)
(0.987586 0.000754283 0)
(0.995776 0.0104327 0)
(1.00681 0.00746172 0)
(1.01057 -0.000608791 0)
(1.00468 -0.00646779 0)
(1.00358 -0.00842414 0)
(0.998729 -0.0115676 0)
(0.99223 -0.00567424 0)
(0.989884 -0.00666796 0)
(0.987782 -0.0009663 0)
(0.987416 0.00521435 0)
(0.99027 0.00763629 0)
(0.99171 0.0121844 0)
(0.995076 0.0131422 0)
(0.997773 0.0132424 0)
(0.998871 -0.001056 0)
(0.998696 0.00373114 0)
(1.00754 0.00209697 0)
(1.00521 -0.00982697 0)
(0.994109 -0.00977292 0)
(0.988189 0.000662543 0)
(0.995879 0.00990618 0)
(1.00657 0.00715495 0)
(1.01009 -0.000681624 0)
(1.00448 -0.00615642 0)
(1.00333 -0.00817389 0)
(0.998897 -0.0110706 0)
(0.992375 -0.00556968 0)
(0.990153 -0.00611322 0)
(0.988349 -0.00105911 0)
(0.987939 0.00522862 0)
(0.990662 0.0074604 0)
(0.992123 0.0116444 0)
(0.995145 0.0130092 0)
(0.997938 0.012903 0)
(0.998817 -0.00101894 0)
(0.998869 0.00356561 0)
(1.00717 0.00197097 0)
(1.00507 -0.00948831 0)
(0.994282 -0.00940323 0)
(0.9888 0.000582297 0)
(0.995978 0.0093698 0)
(1.00634 0.00685393 0)
(1.0096 -0.000757239 0)
(1.00429 -0.00585056 0)
(1.00307 -0.00790327 0)
(0.99907 -0.0105866 0)
(0.992531 -0.00544056 0)
(0.990424 -0.00557725 0)
(0.988915 -0.00112141 0)
(0.988482 0.00520312 0)
(0.991036 0.00732674 0)
(0.992554 0.011091 0)
(0.995227 0.0128213 0)
(0.998068 0.0126097 0)
(0.998763 -0.000983886 0)
(0.999038 0.0034061 0)
(1.0068 0.00183519 0)
(1.00494 -0.00913597 0)
(0.994456 -0.00904679 0)
(0.989406 0.000513253 0)
(0.996081 0.00882812 0)
(1.0061 0.00655633 0)
(1.0091 -0.000831488 0)
(1.00409 -0.00555279 0)
(1.00281 -0.00760928 0)
(0.999241 -0.0101196 0)
(0.992705 -0.00528914 0)
(0.990688 -0.00505435 0)
(0.98948 -0.00114679 0)
(0.98904 0.00514132 0)
(0.991393 0.00723561 0)
(0.99299 0.0105377 0)
(0.99533 0.012574 0)
(0.998157 0.0123626 0)
(0.998723 -0.000951496 0)
(0.999191 0.00325426 0)
(1.00644 0.00168773 0)
(1.0048 -0.00877022 0)
(0.994641 -0.00870345 0)
(0.989996 0.00045396 0)
(0.996194 0.00828127 0)
(1.00584 0.00625817 0)
(1.00862 -0.000901056 0)
(1.00388 -0.00526523 0)
(1.00256 -0.00729789 0)
(0.999405 -0.0096665 0)
(0.992906 -0.00512141 0)
(0.990942 -0.00455047 0)
(0.990043 -0.00114194 0)
(0.989607 0.00504297 0)
(0.991735 0.00717962 0)
(0.993421 0.00999628 0)
(0.995463 0.0122552 0)
(0.998207 0.0121595 0)
(0.998704 -0.00092102 0)
(0.999321 0.00310972 0)
(1.0061 0.00153002 0)
(1.00465 -0.0083965 0)
(0.994844 -0.00836952 0)
(0.990563 0.000404803 0)
(0.996322 0.0077325 0)
(1.00558 0.00595265 0)
(1.00815 -0.000958018 0)
(1.00367 -0.00499809 0)
(1.00233 -0.00696758 0)
(0.999558 -0.00921985 0)
(0.993137 -0.00494545 0)
(0.991185 -0.00406385 0)
(0.990604 -0.00111441 0)
(0.990186 0.00490727 0)
(0.992065 0.00714597 0)
(0.993837 0.00948357 0)
(0.995637 0.0118521 0)
(0.998226 0.0119994 0)
(0.998709 -0.000893057 0)
(0.999424 0.00297448 0)
(1.00578 0.0013608 0)
(1.00447 -0.00801167 0)
(0.995067 -0.00804759 0)
(0.991105 0.000355533 0)
(0.996463 0.00719741 0)
(1.0053 0.00563836 0)
(1.0077 -0.000998581 0)
(1.00345 -0.00474598 0)
(1.0021 -0.00661554 0)
(0.999696 -0.00878152 0)
(0.9934 -0.00476466 0)
(0.99142 -0.00357979 0)
(0.991156 -0.00105334 0)
(0.990776 0.00474022 0)
(0.992389 0.00712596 0)
(0.994228 0.00902717 0)
(0.995857 0.0113651 0)
(0.998228 0.0118567 0)
(0.998736 -0.000868041 0)
(0.999505 0.00284818 0)
(1.00547 0.00118211 0)
(1.00428 -0.00761827 0)
(0.995306 -0.00773713 0)
(0.991626 0.00031 0)
(0.996615 0.00667828 0)
(1.00502 0.00530763 0)
(1.00726 -0.0010304 0)
(1.00322 -0.00450708 0)
(1.00188 -0.00625607 0)
(0.999818 -0.00834387 0)
(0.993691 -0.00457646 0)
(0.99165 -0.00310694 0)
(0.991694 -0.000958026 0)
(0.991379 0.00454164 0)
(0.99271 0.00710625 0)
(0.994585 0.00864535 0)
(0.99612 0.0108119 0)
(0.99824 0.0116713 0)
(0.99878 -0.000845307 0)
(0.999566 0.00273041 0)
(1.00519 0.000996509 0)
(1.00408 -0.00722329 0)
(0.995557 -0.00742902 0)
(0.99213 0.000261505 0)
(0.996774 0.00617656 0)
(1.00472 0.00496163 0)
(1.00683 -0.00105113 0)
(1.00299 -0.00428052 0)
(1.00167 -0.00589187 0)
(0.999926 -0.0079079 0)
(0.994006 -0.00438825 0)
(0.991882 -0.00265255 0)
(0.992212 -0.00082256 0)
(0.991995 0.00431385 0)
(0.993036 0.00706907 0)
(0.994902 0.00834412 0)
(0.996415 0.0102316 0)
(0.998286 0.0113869 0)
(0.998835 -0.000825105 0)
(0.999613 0.00262146 0)
(1.00491 0.000806574 0)
(1.00387 -0.00683196 0)
(0.995812 -0.00711754 0)
(0.992619 0.000197199 0)
(0.996938 0.0057052 0)
(1.00442 0.00460667 0)
(1.00641 -0.001062 0)
(1.00275 -0.00405558 0)
(1.00146 -0.005518 0)
(1.00002 -0.00747258 0)
(0.994339 -0.00420169 0)
(0.99212 -0.0022132 0)
(0.992703 -0.000656804 0)
(0.992619 0.00406791 0)
(0.993375 0.00699698 0)
(0.995177 0.00811293 0)
(0.996719 0.00967476 0)
(0.998386 0.0109816 0)
(0.998895 -0.000807704 0)
(0.999651 0.00252068 0)
(1.00463 0.000615169 0)
(1.00366 -0.00644755 0)
(0.996066 -0.00680544 0)
(0.993097 0.000113807 0)
(0.997102 0.00526428 0)
(1.00413 0.00424145 0)
(1.00601 -0.00107915 0)
(1.00252 -0.00383679 0)
(1.00125 -0.00514114 0)
(1.00009 -0.00703221 0)
(0.994685 -0.00401181 0)
(0.992366 -0.00179115 0)
(0.993163 -0.000461519 0)
(0.993249 0.00381788 0)
(0.993734 0.00688305 0)
(0.995416 0.00793151 0)
(0.99701 0.00918594 0)
(0.998541 0.0104888 0)
(0.998958 -0.00079138 0)
(0.999682 0.00242409 0)
(1.00436 0.000428812 0)
(1.00344 -0.00607814 0)
(0.996314 -0.00648341 0)
(0.993563 4.71998e-06 0)
(0.997265 0.00484852 0)
(1.00383 0.00388016 0)
(1.00561 -0.0011061 0)
(1.0023 -0.00363128 0)
(1.00104 -0.0047657 0)
(1.00016 -0.00658846 0)
(0.995044 -0.00382549 0)
(0.992622 -0.00139201 0)
(0.99359 -0.000232293 0)
(0.993875 0.00357187 0)
(0.994117 0.00672792 0)
(0.995629 0.00777482 0)
(0.997272 0.0087744 0)
(0.998735 0.00996721 0)
(0.999022 -0.000775465 0)
(0.999706 0.00232761 0)
(1.0041 0.000252261 0)
(1.00323 -0.00573331 0)
(0.996555 -0.0061385 0)
(0.994017 -0.000119288 0)
(0.997424 0.00445581 0)
(1.00354 0.00353403 0)
(1.00522 -0.0011371 0)
(1.00209 -0.00343635 0)
(1.00084 -0.00438706 0)
(1.0002 -0.00613812 0)
(0.995412 -0.00364493 0)
(0.992891 -0.00102043 0)
(0.993979 2.14398e-05 0)
(0.994492 0.0033322 0)
(0.994525 0.00653365 0)
(0.995826 0.00762396 0)
(0.997499 0.00841814 0)
(0.998947 0.00946427 0)
(0.999084 -0.000760208 0)
(0.999725 0.00223421 0)
(1.00383 9.44775e-05 0)
(1.00303 -0.0054267 0)
(0.996786 -0.00578458 0)
(0.994458 -0.000259704 0)
(0.99758 0.00407516 0)
(1.00325 0.00321101 0)
(1.00485 -0.00116866 0)
(1.00189 -0.003247 0)
(1.00065 -0.00400536 0)
(1.00023 -0.00568003 0)
(0.995788 -0.00346225 0)
(0.993176 -0.000680893 0)
(0.994329 0.000301845 0)
(0.995089 0.003109 0)
(0.994959 0.0063045 0)
(0.996013 0.00748432 0)
(0.997691 0.00809809 0)
(0.999158 0.00899928 0)
(0.999145 -0.000744714 0)
(0.99974 0.002139 0)
(1.00356 -3.15379e-05 0)
(1.00282 -0.00516217 0)
(0.997007 -0.00542041 0)
(0.994886 -0.00041059 0)
(0.997733 0.00368503 0)
(1.00296 0.00291254 0)
(1.00448 -0.00119481 0)
(1.00171 -0.00307192 0)
(1.00046 -0.0036265 0)
(1.00025 -0.00521404 0)
(0.996169 -0.00327509 0)
(0.993481 -0.000378537 0)
(0.994641 0.000604359 0)
(0.995658 0.00291316 0)
(0.995421 0.00603118 0)
(0.996198 0.00735367 0)
(0.997847 0.00780985 0)
(0.999358 0.00856115 0)
(0.999204 -0.000726452 0)
(0.99975 0.00203205 0)
(1.0033 -0.000114084 0)
(1.00263 -0.00493201 0)
(0.997217 -0.00505389 0)
(0.995297 -0.000549092 0)
(0.997886 0.00328032 0)
(1.00267 0.00262872 0)
(1.00411 -0.00121028 0)
(1.00154 -0.00291302 0)
(1.00028 -0.00326083 0)
(1.00024 -0.00474111 0)
(0.996549 -0.00308277 0)
(0.993809 -0.000115121 0)
(0.994917 0.000913393 0)
(0.996186 0.00275383 0)
(0.995909 0.00570911 0)
(0.996391 0.00721603 0)
(0.997965 0.00756528 0)
(0.999539 0.00814042 0)
(0.999262 -0.000704701 0)
(0.999758 0.0019136 0)
(1.00303 -0.000154561 0)
(1.00244 -0.00473041 0)
(0.997421 -0.0047132 0)
(0.995689 -0.000662079 0)
(0.998035 0.00287545 0)
(1.0024 0.00236069 0)
(1.00376 -0.00120894 0)
(1.00138 -0.00276048 0)
(1.00011 -0.00291345 0)
(1.00022 -0.00426428 0)
(0.996924 -0.00288182 0)
(0.994163 0.000106052 0)
(0.995163 0.00121995 0)
(0.996665 0.00264587 0)
(0.996422 0.00535199 0)
(0.996607 0.00704733 0)
(0.998047 0.00737395 0)
(0.99969 0.00774867 0)
(0.999316 -0.00068037 0)
(0.999764 0.00178494 0)
(1.00276 -0.000168319 0)
(1.00226 -0.00453933 0)
(0.997618 -0.00440569 0)
(0.99606 -0.00074741 0)
(0.998179 0.00247924 0)
(1.00213 0.00211515 0)
(1.00341 -0.00117522 0)
(1.00124 -0.00260239 0)
(0.999958 -0.00258628 0)
(1.00018 -0.00379229 0)
(0.997287 -0.00267672 0)
(0.994542 0.000271156 0)
(0.995389 0.0015058 0)
(0.997085 0.00259098 0)
(0.996944 0.00497757 0)
(0.996859 0.00682116 0)
(0.9981 0.00722179 0)
(0.999799 0.00740672 0)
(0.999369 -0.00065215 0)
(0.99977 0.00164486 0)
(1.00249 -0.000162131 0)
(1.00208 -0.00434915 0)
(0.997808 -0.00413188 0)
(0.996409 -0.000804718 0)
(0.99832 0.00209939 0)
(1.00188 0.00188711 0)
(1.00307 -0.00110787 0)
(1.00111 -0.00244942 0)
(0.999826 -0.00229436 0)
(1.00012 -0.00333174 0)
(0.997633 -0.00246466 0)
(0.994944 0.000381395 0)
(0.995603 0.00174874 0)
(0.997441 0.00257876 0)
(0.997461 0.00460854 0)
(0.997155 0.00653251 0)
(0.998141 0.00708006 0)
(0.999855 0.00712786 0)
(0.999418 -0.000622264 0)
(0.999776 0.00148448 0)
(1.00222 -0.000134015 0)
(1.0019 -0.0041479 0)
(0.997993 -0.00389351 0)
(0.996737 -0.00084658 0)
(0.998457 0.00174456 0)
(1.00164 0.00167231 0)
(1.00273 -0.00100453 0)
(1.00099 -0.00229163 0)
(0.999717 -0.00204211 0)
(1.00006 -0.00289333 0)
(0.997957 -0.00224175 0)
(0.995366 0.00044909 0)
(0.995816 0.00194385 0)
(0.997735 0.00259788 0)
(0.997955 0.00426331 0)
(0.997496 0.00619216 0)
(0.99819 0.00692218 0)
(0.999859 0.00691437 0)
(0.999464 -0.000581522 0)
(0.999785 0.00129325 0)
(1.00196 -9.12067e-05 0)
(1.00172 -0.00393144 0)
(0.998171 -0.00368063 0)
(0.997046 -0.000888519 0)
(0.998589 0.0014124 0)
(1.00143 0.00145501 0)
(1.00242 -0.000869756 0)
(1.00087 -0.0020891 0)
(0.999631 -0.00180259 0)
(1 -0.00248244 0)
(0.998258 -0.00200496 0)
(0.995802 0.000491683 0)
(0.996036 0.00209809 0)
(0.997972 0.0026483 0)
(0.998414 0.0039609 0)
(0.997879 0.00581796 0)
(0.99827 0.00672711 0)
(0.999823 0.00674139 0)
(0.999507 -0.000544378 0)
(0.999798 0.00109917 0)
(1.00172 -5.67172e-05 0)
(1.00155 -0.00369372 0)
(0.998345 -0.00350195 0)
(0.997338 -0.000919856 0)
(0.998716 0.00107286 0)
(1.00124 0.0012521 0)
(1.00212 -0.000718568 0)
(1.00076 -0.0018563 0)
(0.999557 -0.00156438 0)
(0.999936 -0.00209127 0)
(0.998533 -0.00175614 0)
(0.996247 0.000517789 0)
(0.996271 0.00220991 0)
(0.998161 0.002726 0)
(0.998826 0.00371508 0)
(0.998294 0.00542889 0)
(0.998396 0.00649012 0)
(0.999766 0.00658604 0)
(0.999549 -0.000503899 0)
(0.999816 0.000901284 0)
(1.00148 -3.93496e-05 0)
(1.00138 -0.00343478 0)
(0.998514 -0.00335734 0)
(0.997607 -0.000913367 0)
(0.998845 0.00083307 0)
(1.00109 0.00104823 0)
(1.00184 -0.000591085 0)
(1.00065 -0.00163491 0)
(0.99949 -0.00135117 0)
(0.999865 -0.00172983 0)
(0.998772 -0.00150483 0)
(0.996689 0.000531579 0)
(0.996526 0.00227036 0)
(0.998314 0.00281235 0)
(0.999184 0.00352676 0)
(0.99873 0.0050351 0)
(0.998582 0.0062102 0)
(0.999718 0.00642552 0)
(0.999587 -0.000458776 0)
(0.999837 0.000695949 0)
(1.00126 -2.94267e-05 0)
(1.00121 -0.00317151 0)
(0.998676 -0.00318299 0)
(0.997879 -0.000875437 0)
(0.998968 0.000687505 0)
(1.00095 0.000830238 0)
(1.0016 -0.000535161 0)
(1.00055 -0.00145546 0)
(0.999438 -0.00116781 0)
(0.9998 -0.00140423 0)
(0.998987 -0.00125117 0)
(0.997127 0.000540261 0)
(0.996807 0.00227945 0)
(0.998445 0.00288323 0)
(0.99948 0.00339557 0)
(0.999166 0.00465264 0)
(0.998826 0.00588591 0)
(0.999698 0.00623719 0)
(0.999622 -0.000419138 0)
(0.999865 0.000509839 0)
(1.00106 -5.04858e-05 0)
(1.00104 -0.00287612 0)
(0.998836 -0.00297372 0)
(0.998139 -0.000858694 0)
(0.999077 0.000533199 0)
(1.00083 0.000628068 0)
(1.00138 -0.000531251 0)
(1.00046 -0.00130494 0)
(0.999412 -0.00098692 0)
(0.999752 -0.00109656 0)
(0.999181 -0.0009992 0)
(0.997557 0.000548733 0)
(0.997114 0.00225084 0)
(0.998569 0.00292785 0)
(0.999713 0.00331677 0)
(0.99958 0.00431428 0)
(0.999121 0.00553392 0)
(0.999718 0.0060192 0)
(0.999655 -0.000378439 0)
(0.999894 0.000339478 0)
(1.00089 -9.3579e-05 0)
(1.00089 -0.00255594 0)
(0.998985 -0.00276837 0)
(0.998388 -0.000871569 0)
(0.99918 0.000405194 0)
(1.00072 0.00046257 0)
(1.00119 -0.00051861 0)
(1.00039 -0.00115014 0)
(0.999408 -0.000807263 0)
(0.999713 -0.000809744 0)
(0.999349 -0.000749547 0)
(0.997971 0.000570603 0)
(0.997444 0.00220222 0)
(0.9987 0.00294715 0)
(0.999895 0.00327474 0)
(0.999953 0.0040364 0)
(0.999451 0.00517542 0)
(0.999788 0.00577258 0)
(0.999685 -0.000344157 0)
(0.999925 0.000189732 0)
(1.00074 -0.000142632 0)
(1.00075 -0.00226043 0)
(0.999119 -0.00256378 0)
(0.998629 -0.000883802 0)
(0.999283 0.000301182 0)
(1.00062 0.000345965 0)
(1.00102 -0.000491564 0)
(1.00035 -0.00101219 0)
(0.999424 -0.000650818 0)
(0.999687 -0.000554651 0)
(0.999495 -0.000504337 0)
(0.998363 0.000610148 0)
(0.997791 0.00213609 0)
(0.998846 0.0029301 0)
(1.00004 0.00324364 0)
(1.00028 0.00381051 0)
(0.999801 0.00482411 0)
(0.999914 0.00549807 0)
(0.999713 -0.000311105 0)
(0.999956 6.379e-05 0)
(1.00062 -0.000216318 0)
(1.00062 -0.00198727 0)
(0.999243 -0.00233942 0)
(0.998861 -0.000887735 0)
(0.999387 0.000207613 0)
(1.00054 0.000259032 0)
(1.00087 -0.000458146 0)
(1.00032 -0.000888275 0)
(0.999462 -0.000507701 0)
(0.999679 -0.000323325 0)
(0.999623 -0.000269669 0)
(0.998728 0.000658425 0)
(0.998147 0.00205828 0)
(0.999012 0.00287771 0)
(1.00016 0.00320943 0)
(1.00056 0.00363126 0)
(1.00015 0.00449332 0)
(1.00009 0.00519704 0)
(0.999739 -0.000285046 0)
(0.999986 -4.05891e-05 0)
(1.00052 -0.000299845 0)
(1.00051 -0.00173129 0)
(0.999352 -0.00210393 0)
(0.999081 -0.000894245 0)
(0.999495 0.000118945 0)
(1.00047 0.000199264 0)
(1.00075 -0.000405563 0)
(1.0003 -0.000767017 0)
(0.99952 -0.000384415 0)
(0.999688 -0.000121925 0)
(0.999734 -4.6619e-05 0)
(0.999063 0.000715336 0)
(0.998504 0.00198784 0)
(0.999201 0.00281034 0)
(1.00027 0.00317222 0)
(1.00078 0.00349802 0)
(1.00049 0.00420216 0)
(1.00032 0.00488648 0)
(0.999764 -0.000263576 0)
(1.00001 -0.000118635 0)
(1.00045 -0.000387572 0)
(1.00042 -0.00150632 0)
(0.999448 -0.0018591 0)
(0.999285 -0.000887698 0)
(0.999608 2.93605e-05 0)
(1.00041 0.00015453 0)
(1.00064 -0.000343167 0)
(1.0003 -0.000654442 0)
(0.999596 -0.00028165 0)
(0.999721 5.21971e-05 0)
(0.999837 0.000166452 0)
(0.99937 0.00078588 0)
(0.998859 0.00192301 0)
(0.99941 0.00272787 0)
(1.00038 0.00311183 0)
(1.00097 0.00338222 0)
(1.00079 0.00394742 0)
(1.00057 0.0045749 0)
(0.999787 -0.000246957 0)
(1.00003 -0.000170803 0)
(1.00039 -0.000464572 0)
(1.00036 -0.0013102 0)
(0.999532 -0.001617 0)
(0.99947 -0.000869985 0)
(0.999726 -6.30579e-05 0)
(1.00038 0.000117201 0)
(1.00055 -0.000266773 0)
(1.0003 -0.000530946 0)
(0.999689 -0.000182541 0)
(0.999778 0.000195367 0)
(0.999933 0.000357121 0)
(0.999645 0.000862213 0)
(0.999202 0.00185556 0)
(0.999631 0.00262997 0)
(1.00049 0.00303226 0)
(1.00113 0.00327402 0)
(1.00106 0.00373712 0)
(1.00083 0.00428561 0)
(0.999808 -0.000233944 0)
(1.00005 -0.000196333 0)
(1.00035 -0.000521485 0)
(1.00031 -0.00115287 0)
(0.999606 -0.00139129 0)
(0.999633 -0.000835588 0)
(0.999845 -0.00014819 0)
(1.00037 7.94018e-05 0)
(1.00048 -0.000186149 0)
(1.00031 -0.000403561 0)
(0.999788 -9.30064e-05 0)
(0.999855 0.000301198 0)
(1.00003 0.000509588 0)
(0.999891 0.00093483 0)
(0.999528 0.00180015 0)
(0.999865 0.00253334 0)
(1.00062 0.00295488 0)
(1.00127 0.00317707 0)
(1.0013 0.0035633 0)
(1.00109 0.00402808 0)
(0.999828 -0.000224793 0)
(1.00006 -0.000197001 0)
(1.00032 -0.000554603 0)
(1.00029 -0.00103711 0)
(0.999673 -0.00118813 0)
(0.999773 -0.000775578 0)
(0.999962 -0.000218923 0)
(1.00038 3.79206e-05 0)
(1.00043 -0.000111874 0)
(1.00032 -0.000276616 0)
(0.99989 -7.17295e-06 0)
(0.999946 0.000391885 0)
(1.00013 0.000639484 0)
(1.00011 0.00100296 0)
(0.999838 0.00175677 0)
(1.00011 0.00243468 0)
(1.00075 0.00286631 0)
(1.0014 0.0030778 0)
(1.00151 0.00339678 0)
(1.00133 0.00379539 0)
(0.999846 -0.000216916 0)
(1.00007 -0.000186037 0)
(1.0003 -0.000565292 0)
(1.00028 -0.000951349 0)
(0.999738 -0.00101071 0)
(0.999891 -0.000693649 0)
(1.00007 -0.000267814 0)
(1.00041 -3.43694e-06 0)
(1.0004 -4.6704e-05 0)
(1.00033 -0.000149789 0)
(0.999992 8.13151e-05 0)
(1.00005 0.000466866 0)
(1.00023 0.000750647 0)
(1.00032 0.00106331 0)
(1.00012 0.00171083 0)
(1.00035 0.00233151 0)
(1.00089 0.00276135 0)
(1.00151 0.00297748 0)
(1.00169 0.0032409 0)
(1.00154 0.00359186 0)
(0.999863 -0.000209128 0)
(1.00008 -0.000172716 0)
(1.00027 -0.0005545 0)
(1.00029 -0.000882725 0)
(0.999803 -0.000860387 0)
(0.999988 -0.000599775 0)
(1.00017 -0.000287454 0)
(1.00045 -4.22695e-05 0)
(1.0004 3.93117e-06 0)
(1.00036 -2.8344e-05 0)
(1.00009 0.000181946 0)
(1.00016 0.000529776 0)
(1.00034 0.000834495 0)
(1.00049 0.00111857 0)
(1.00039 0.00166669 0)
(1.00058 0.0022311 0)
(1.00105 0.00265202 0)
(1.00162 0.00287633 0)
(1.00184 0.00309986 0)
(1.00173 0.00340288 0)
(0.999878 -0.000199977 0)
(1.00008 -0.000162009 0)
(1.00025 -0.000524539 0)
(1.0003 -0.000820533 0)
(0.999872 -0.00073905 0)
(1.00007 -0.000502397 0)
(1.00025 -0.000274263 0)
(1.0005 -6.82633e-05 0)
(1.00042 4.04738e-05 0)
(1.00039 7.9184e-05 0)
(1.00018 0.000283803 0)
(1.00028 0.000594484 0)
(1.00044 0.000896986 0)
(1.00065 0.00116569 0)
(1.00063 0.00163302 0)
(1.00082 0.00213359 0)
(1.0012 0.00254248 0)
(1.00172 0.00277092 0)
(1.00198 0.00296794 0)
(1.00191 0.00321936 0)
(0.999891 -0.000189442 0)
(1.00008 -0.000153803 0)
(1.00022 -0.000480903 0)
(1.00032 -0.000756976 0)
(0.999943 -0.000642937 0)
(1.00014 -0.000407848 0)
(1.00031 -0.000238243 0)
(1.00056 -7.52804e-05 0)
(1.00045 6.84537e-05 0)
(1.00043 0.000167004 0)
(1.00027 0.000372983 0)
(1.00038 0.000658564 0)
(1.00055 0.000951628 0)
(1.0008 0.00119775 0)
(1.00084 0.0016023 0)
(1.00104 0.00203756 0)
(1.00137 0.0024251 0)
(1.00183 0.0026605 0)
(1.00209 0.00284105 0)
(1.00207 0.00304743 0)
(0.999902 -0.000177383 0)
(1.00008 -0.000147473 0)
(1.0002 -0.000428139 0)
(1.00034 -0.000687613 0)
(1.00002 -0.000565936 0)
(1.00021 -0.000322183 0)
(1.00037 -0.000185226 0)
(1.00061 -6.17049e-05 0)
(1.0005 9.33991e-05 0)
(1.00049 0.00023517 0)
(1.00035 0.000451736 0)
(1.00049 0.000712492 0)
(1.00065 0.00100063 0)
(1.00093 0.00122554 0)
(1.00103 0.00157191 0)
(1.00124 0.00195232 0)
(1.00153 0.00230429 0)
(1.00194 0.00254446 0)
(1.00219 0.00271972 0)
(1.00221 0.00288794 0)
(0.999911 -0.000163376 0)
(1.00008 -0.000142397 0)
(1.00018 -0.000373626 0)
(1.00035 -0.000609854 0)
(1.00009 -0.000500082 0)
(1.00028 -0.00025062 0)
(1.00041 -0.000120336 0)
(1.00065 -2.72446e-05 0)
(1.00055 0.000122717 0)
(1.00055 0.00028691 0)
(1.00044 0.00051839 0)
(1.00059 0.000756402 0)
(1.00075 0.00103161 0)
(1.00105 0.00124959 0)
(1.00119 0.00154276 0)
(1.00142 0.00187508 0)
(1.00169 0.00219116 0)
(1.00205 0.00242014 0)
(1.00228 0.00260148 0)
(1.00233 0.00273806 0)
(0.999918 -0.000148542 0)
(1.00009 -0.000135719 0)
(1.00016 -0.000320024 0)
(1.00037 -0.000524995 0)
(1.00016 -0.000436206 0)
(1.00035 -0.000191248 0)
(1.00045 -5.40335e-05 0)
(1.00069 2.50627e-05 0)
(1.00061 0.000162334 0)
(1.00063 0.000331688 0)
(1.00053 0.000570481 0)
(1.00069 0.00079861 0)
(1.00085 0.00105001 0)
(1.00116 0.00125972 0)
(1.00134 0.00151612 0)
(1.00158 0.00179662 0)
(1.00183 0.00208518 0)
(1.00216 0.00229085 0)
(1.00237 0.0024764 0)
(1.00242 0.00259726 0)