/*--------------------------------*- C++ -*----------------------------------*\
| =========                 |                                                 |
| \\      /  F ield         | OpenFOAM: The Open Source CFD Toolbox           |
|  \\    /   O peration     | Version:  3.0.1                                 |
|   \\  /    A nd           | Web:      www.OpenFOAM.org                      |
|    \\/     M anipulation  |                                                 |
\*---------------------------------------------------------------------------*/
FoamFile
{
    version     2.0;
    format      ascii;
    class       volScalarField;
    location    "1.7";
    object      p;
}
// * * * * * * * * * * * * * * * * * * * * * * * * * * * * * * * * * * * * * //

dimensions      [0 2 -2 0 0 0 0];

internalField   nonuniform List<scalar> 
9600
(
-8.5142e-11
0.0012901
0.00156308
0.00072361
0.00022943
0.00205966
0.000993048
-0.000190328
0.000868968
0.000540609
0.000387548
9.77637e-05
0.000660729
0.000399508
-0.000316933
0.000450197
1.59394e-06
0.00103003
0.00155587
0.00317546
8.0233e-07
0.00128586
0.00156394
0.00072523
0.000238405
0.00202826
0.000987698
-0.00018537
0.000865332
0.00053825
0.000397047
8.89057e-05
0.000677639
0.000381824
-0.000304589
0.000396457
1.74743e-05
0.000997751
0.00156783
0.00296155
1.7901e-06
0.00128147
0.0015654
0.000727517
0.000245261
0.00199787
0.000984783
-0.000175636
0.000857835
0.000537102
0.00040424
7.41483e-05
0.000692532
0.000352928
-0.000287014
0.000336057
4.47789e-05
0.000953212
0.00156765
0.00268387
3.07006e-06
0.00127699
0.00156624
0.000728889
0.00025216
0.00196665
0.000982943
-0.000162849
0.000846461
0.000535945
0.000408556
5.31802e-05
0.00070583
0.000315331
-0.000268354
0.00027258
6.92422e-05
0.000914871
0.00154252
0.00242028
4.93651e-06
0.00127218
0.00156627
0.000729687
0.000261184
0.00193303
0.000980665
-0.000147311
0.000831849
0.00053503
0.000411349
2.79497e-05
0.000720802
0.000270594
-0.000246457
0.000206727
9.25429e-05
0.00088115
0.00149098
0.00218476
7.43659e-06
0.00126689
0.0015653
0.00073052
0.000272432
0.00189696
0.000978487
-0.000129645
0.000815648
0.000534619
0.000412863
1.19888e-06
0.000737058
0.000222775
-0.000221164
0.000140506
0.000115963
0.000845721
0.00141945
0.00197611
1.04431e-05
0.0012611
0.00156387
0.000731622
0.0002857
0.00185932
0.000976845
-0.000110664
0.000799245
0.000534347
0.00041324
-2.54177e-05
0.000753868
0.000174963
-0.00019473
7.71394e-05
0.000134422
0.000809432
0.00133272
0.00178269
1.37873e-05
0.00125487
0.00156203
0.000733084
0.000300936
0.00182084
0.000975644
-9.09722e-05
0.000783296
0.00053386
0.000412728
-5.11673e-05
0.000770856
0.000128532
-0.000168241
1.85602e-05
0.000144024
0.000776761
0.00122939
0.00159545
1.73323e-05
0.00124824
0.00155999
0.000734908
0.000317354
0.00178181
0.000974616
-7.09858e-05
0.00076805
0.000533007
0.0004115
-7.58014e-05
0.000786835
8.47351e-05
-0.000142425
-3.40511e-05
0.000144026
0.000749586
0.00110726
0.0014103
2.10023e-05
0.00124129
0.00155793
0.000737006
0.000334649
0.00174232
0.000973508
-5.0945e-05
0.000753578
0.000531733
0.000409655
-9.9345e-05
0.000801081
4.48779e-05
-0.000118922
-7.89863e-05
0.000134254
0.00072728
0.000967804
0.00122477
2.47752e-05
0.00123403
0.00155591
0.000739256
0.000352618
0.00170235
0.000972122
-3.09882e-05
0.000739824
0.00053004
0.000407197
-0.000121911
0.000813227
9.86385e-06
-9.97721e-05
-0.000114535
0.000113877
0.000708597
0.000815199
0.00103541
2.86601e-05
0.00122649
0.00155398
0.000741551
0.000371139
0.00166182
0.000970316
-1.12209e-05
0.000726675
0.000527981
0.000404043
-0.000143584
0.00082295
-1.97691e-05
-8.69131e-05
-0.000139777
8.19561e-05
0.000691756
0.000654887
0.000838317
3.26813e-05
0.00121864
0.00155213
0.000743813
0.000390128
0.00162069
0.000967997
8.27044e-06
0.000714006
0.000525678
0.000400013
-0.000164331
0.000829864
-4.36347e-05
-8.20814e-05
-0.000154844
3.82263e-05
0.000673924
0.000492731
0.000630831
3.68714e-05
0.00121045
0.00155035
0.000745988
0.000409422
0.00157897
0.000965104
2.74324e-05
0.000701673
0.000523346
0.000394793
-0.000183958
0.000833504
-6.15062e-05
-8.66796e-05
-0.000160798
-1.63556e-05
0.000650996
0.000334246
0.000412157
4.12679e-05
0.00120189
0.00154866
0.000748033
0.000429077
0.00153669
0.000961572
4.62447e-05
0.000689518
0.000521262
0.000388006
-0.000202227
0.000833438
-7.3382e-05
-0.00010169
-0.000159246
-7.97548e-05
0.000618043
0.000184198
0.000183427
4.59131e-05
0.00119289
0.00154704
0.000749921
0.00044906
0.00149393
0.00095732
6.47249e-05
0.000677375
0.000519723
0.000379282
-0.000218902
0.000829213
-7.92989e-05
-0.000127367
-0.000152545
-0.000149266
0.000570646
4.61752e-05
-5.25365e-05
5.0857e-05
0.0011834
0.0015455
0.000751634
0.000469328
0.00145079
0.000952256
8.29503e-05
0.000665007
0.00051907
0.000368248
-0.000233773
0.000820333
-7.93925e-05
-0.000163152
-0.000143902
-0.000221771
0.000505792
-7.82468e-05
-0.000291689
5.61581e-05
0.00117336
0.00154405
0.000753164
0.000489825
0.00140739
0.000946248
0.000101077
0.000652075
0.000519644
0.000354683
-0.000246816
0.00080649
-7.42313e-05
-0.000207793
-0.000136631
-0.000294362
0.000421907
-0.000189525
-0.000529245
6.18839e-05
0.00116265
0.00154269
0.000754513
0.000510478
0.00136392
0.0009391
0.00011932
0.000638234
0.00052165
0.000338534
-0.000258177
0.000787766
-6.49031e-05
-0.00025945
-0.000133615
-0.000365066
0.000319217
-0.000289399
-0.000760016
6.81114e-05
0.00115116
0.00154142
0.000755697
0.000531188
0.00132056
0.000930593
0.000137908
0.000623183
0.000525208
0.000319863
-0.000268299
0.000764599
-5.27407e-05
-0.000316157
-0.00013721
-0.000432813
0.000199497
-0.000380254
-0.000978731
7.4927e-05
0.00113881
0.00154023
0.000756755
0.000551815
0.00127757
0.000920463
0.000157121
0.000606631
0.000530342
0.000298985
-0.000277887
0.00073758
-3.926e-05
-0.000376447
-0.000149207
-0.000497003
6.49004e-05
-0.000465023
-0.00118023
8.24277e-05
0.00112549
0.0015391
0.000757742
0.000572198
0.00123526
0.00090835
0.000177226
0.0005884
0.000536834
0.000276509
-0.000287738
0.00070747
-2.58841e-05
-0.000439536
-0.000170538
-0.000557092
-8.27389e-05
-0.000547257
-0.00135972
9.07211e-05
0.00111108
0.001538
0.000758734
0.000592136
0.00119405
0.000893883
0.000198364
0.000568393
0.000544254
0.00025338
-0.000299082
0.000674973
-1.30903e-05
-0.000505143
-0.000201876
-0.000612231
-0.000241236
-0.000630808
-0.0015136
9.99229e-05
0.00109546
0.00153686
0.000759861
0.00061136
0.00115434
0.000876781
0.000220598
0.000546684
0.000551902
0.000230814
-0.000313019
0.000640116
-1.13962e-06
-0.000573168
-0.000243886
-0.000661747
-0.000407685
-0.000719462
-0.00163991
0.000110157
0.00107854
0.00153557
0.000761306
0.000629577
0.00111649
0.000856817
0.000243909
0.000523625
0.000558775
0.000210085
-0.00033022
0.000602481
9.81367e-06
-0.000643479
-0.000297492
-0.000705271
-0.000578289
-0.000816763
-0.00173864
0.000121552
0.00106021
0.00153396
0.000763274
0.000646479
0.00108092
0.000833821
0.000268094
0.000499817
0.000563785
0.00019224
-0.000351054
0.000561547
2.00513e-05
-0.000716131
-0.000364156
-0.000742563
-0.000748254
-0.000925955
-0.00181171
0.000134235
0.00104043
0.00153182
0.000766023
0.000661714
0.00104795
0.000807823
0.000292709
0.000476065
0.000565753
0.000177948
-0.000375247
0.000516031
2.96752e-05
-0.000790062
-0.00044494
-0.00077375
-0.000912187
-0.00105013
-0.00186315
0.000148332
0.00101919
0.00152884
0.000769845
0.000674991
0.00101782
0.00077903
0.000317166
0.000453262
0.000563479
0.000167412
-0.000402206
0.000464381
3.86652e-05
-0.000863804
-0.000540532
-0.000800038
-0.00106386
-0.00119146
-0.00190023
0.00016396
0.000996513
0.00152467
0.000774983
0.000686085
0.000990719
0.000747715
0.00034071
0.000432412
0.000556071
0.000160218
-0.00043088
0.000405393
4.62382e-05
-0.000935627
-0.000651262
-0.000824653
-0.00119645
-0.00134898
-0.00193408
0.000181217
0.000972518
0.00151893
0.000781641
0.000694873
0.000966647
0.000714378
0.000362444
0.000414377
0.000542938
0.00015563
-0.00045979
0.000337476
5.06689e-05
-0.00100249
-0.00077592
-0.000852476
-0.00130457
-0.00151679
-0.00197798
0.000200169
0.000947375
0.0015112
0.000789976
0.000701309
0.000945489
0.000679788
0.000381435
0.000399612
0.000523841
0.000152559
-0.000487743
0.000259562
5.03113e-05
-0.00106103
-0.000911638
-0.000888781
-0.00138639
-0.0016849
-0.00204348
0.000220883
0.000921305
0.00150103
0.000800035
0.000705494
0.000927015
0.000644745
0.000396975
0.000388365
0.000498891
0.000149157
-0.000513768
0.00017192
4.20492e-05
-0.00110887
-0.00105425
-0.000937915
-0.0014444
-0.00184228
-0.00213545
0.000243397
0.000894581
0.00148806
0.000811646
0.000707812
0.000910992
0.000609881
0.000408499
0.000380767
0.000468318
0.000143161
-0.000536919
7.56751e-05
2.34059e-05
-0.00114467
-0.00119861
-0.00100243
-0.00148423
-0.00197988
-0.00225002
0.000267697
0.000867498
0.00147205
0.00082457
0.00070833
0.00089728
0.000575994
0.000415208
0.000376752
0.000432663
0.000131997
-0.000556793
-2.69486e-05
-7.37321e-06
-0.00116885
-0.00133971
-0.00108298
-0.00151269
-0.00209269
-0.00237704
0.00029375
0.000840333
0.00145284
0.000838635
0.000707114
0.000885573
0.000544087
0.000416315
0.000375869
0.000392867
0.0001129
-0.000573932
-0.000132343
-5.08818e-05
-0.0011834
-0.00147329
-0.00117864
-0.00153645
-0.00218014
-0.00250442
0.000321525
0.000813361
0.00143037
0.000853621
0.000704349
0.000875536
0.000515033
0.000411193
0.000377191
0.000350425
8.38053e-05
-0.000589281
-0.000236663
-0.000106975
-0.00119089
-0.00159604
-0.00128778
-0.00156104
-0.00224431
-0.00262208
0.000351022
0.000786841
0.00140467
0.000869461
0.000700345
0.000866723
0.000489736
0.000399065
0.000379284
0.00030736
4.4263e-05
-0.000603918
-0.000336658
-0.00017438
-0.00119424
-0.0017062
-0.00140874
-0.00159011
-0.00228795
-0.00272398
0.000382162
0.000761048
0.00137573
0.000886198
0.000692028
0.000858331
0.000469355
0.000379315
0.000379987
0.000265577
-4.58703e-06
-0.000619781
-0.000430689
-0.000250503
-0.00119586
-0.00180249
-0.00153948
-0.00162666
-0.00231381
-0.00280785
0.000414861
0.000736309
0.00134347
0.000903959
0.000680765
0.000848848
0.000454906
0.000352273
0.000375964
0.000227077
-5.94478e-05
-0.000639001
-0.000518596
-0.000333428
-0.00119814
-0.00188359
-0.00167706
-0.00167442
-0.00232488
-0.00287293
0.000449026
0.000713012
0.00130775
0.00092296
0.000666959
0.000835867
0.000446576
0.000319292
0.000363785
0.000193158
-0.000115852
-0.000662836
-0.000601152
-0.000421735
-0.00120368
-0.00194882
-0.00181698
-0.00173698
-0.00232467
-0.00291767
0.00048441
0.000691706
0.00126843
0.000943202
0.000651751
0.000816746
0.000443753
0.000282759
0.000340933
0.000163189
-0.000169461
-0.00069146
-0.000679794
-0.000513585
-0.00121417
-0.00199858
-0.00195349
-0.0018162
-0.00231875
-0.00293997
0.000520741
0.000672986
0.00122529
0.000964513
0.000636901
0.00078898
0.000444344
0.000245611
0.000307012
0.000135467
-0.000217422
-0.00072349
-0.000756142
-0.00060867
-0.00123085
-0.00203406
-0.00208084
-0.00191093
-0.00231478
-0.00293974
0.0005585
0.00065751
0.00117827
0.000986388
0.000624833
0.000750658
0.000444382
0.000210258
0.000261131
0.00010758
-0.000258228
-0.000755878
-0.000832374
-0.000707676
-0.00125507
-0.00205739
-0.00219485
-0.00201706
-0.00231985
-0.00292053
0.000595543
0.000645979
0.00112758
0.00100782
0.000618073
0.000701065
0.000438625
0.0001781
0.000202416
7.73102e-05
-0.000291457
-0.000785663
-0.000906323
-0.000809894
-0.00128857
-0.00207216
-0.00229317
-0.00212884
-0.00233747
-0.00288876
0.000632111
0.00063906
0.00107253
0.00102688
0.000618954
0.000641028
0.000421327
0.000150177
0.000148054
4.28646e-05
-0.000318643
-0.000811144
-0.00097525
-0.000913045
-0.00133257
-0.00208251
-0.00237477
-0.00224077
-0.00236819
-0.00285171
0.000667637
0.000637368
0.00101628
0.00104012
0.000628466
0.000574258
0.000388878
0.000127202
9.68214e-05
2.01729e-06
-0.000344417
-0.000830856
-0.00103591
-0.00101445
-0.00138638
-0.00209212
-0.0024401
-0.00234866
-0.00241145
-0.00281593
0.000701499
0.000641282
0.000958688
0.00104445
0.000645709
0.000505683
0.000341397
0.0001081
5.11585e-05
-4.60521e-05
-0.000373233
-0.000845971
-0.00108671
-0.00111039
-0.00144741
-0.00210403
-0.0024913
-0.00244913
-0.00246537
-0.00278652
0.000733092
0.000650827
0.000901148
0.00103604
0.000668393
0.00044258
0.000280987
8.74368e-05
1.24853e-05
-9.87295e-05
-0.000409357
-0.000861852
-0.00112907
-0.00119662
-0.00151182
-0.0021203
-0.00253196
-0.00254003
-0.00252634
-0.00276677
0.000761935
0.000665679
0.000845853
0.00101339
0.000693165
0.000390821
0.000210237
5.88567e-05
-1.86848e-05
-0.000148585
-0.000452563
-0.00088366
-0.00116544
-0.00127161
-0.00157493
-0.00214042
-0.00256504
-0.00262072
-0.00259028
-0.00275723
0.00078764
0.000685229
0.000795052
0.00097524
0.000716431
0.000354147
0.000134028
1.76367e-05
-4.50293e-05
-0.000191949
-0.000500447
-0.000912506
-0.00120053
-0.00133732
-0.00163308
-0.002162
-0.00259199
-0.00269159
-0.00265474
-0.0027558
0.000809966
0.000708481
0.000750733
0.000922387
0.000730725
0.00033366
5.9677e-05
-3.80624e-05
-7.32948e-05
-0.00022671
-0.000545679
-0.000946664
-0.00123787
-0.00139638
-0.00168623
-0.00218338
-0.00261283
-0.00275194
-0.00271857
-0.00275981
0.000828857
0.000733984
0.000714555
0.000857934
0.000731086
0.000327721
-5.70718e-06
-0.00010732
-0.000110461
-0.000253438
-0.000582473
-0.000983798
-0.00127878
-0.00145203
-0.00173523
-0.00220395
-0.00262755
-0.00279977
-0.00278027
-0.00276929
0.000844353
0.000759843
0.00068767
0.000781714
0.000713978
0.000331292
-5.65531e-05
-0.000185061
-0.000161721
-0.000277131
-0.000608739
-0.00101797
-0.00132194
-0.00150708
-0.00178027
-0.00222285
-0.00263768
-0.0028344
-0.00283663
-0.00278639
0.000856548
0.000783972
0.000670302
0.000707349
0.000678047
0.000336918
-9.03549e-05
-0.000262674
-0.000227729
-0.000307065
-0.000626431
-0.00104298
-0.00136412
-0.00156321
-0.00182339
-0.00223926
-0.00264495
-0.0028575
-0.0028825
-0.00281078
0.000866107
0.000804417
0.00066158
0.000634951
0.000623647
0.000337045
-0.000107327
-0.000332298
-0.000306643
-0.000349278
-0.000639378
-0.00105715
-0.00139892
-0.00161784
-0.00186813
-0.00225388
-0.00264941
-0.00287265
-0.00291446
-0.0028371
0.000873407
0.00081971
0.000659395
0.000569269
0.000554185
0.000325525
-0.000111322
-0.000388536
-0.000392434
-0.000405726
-0.000655168
-0.00106306
-0.00142181
-0.00166572
-0.00191417
-0.00226948
-0.00265039
-0.00288319
-0.00293411
-0.00285743
0.000878606
0.000829511
0.00066024
0.000513353
0.00047565
0.000298486
-0.000109499
-0.000428702
-0.000476096
-0.000475458
-0.000680123
-0.00106395
-0.00143393
-0.00170196
-0.00195625
-0.00228795
-0.0026489
-0.00289005
-0.00294647
-0.00286684
0.000881864
0.000833705
0.000660877
0.000467836
0.000394745
0.000255249
-0.000110051
-0.00045332
-0.000549877
-0.000554555
-0.000717639
-0.00106541
-0.00143685
-0.00172584
-0.00198961
-0.00230627
-0.00264655
-0.00289216
-0.00295578
-0.00286697
0.000883154
0.00083231
0.000658752
0.000432945
0.000316617
0.000197091
-0.000118956
-0.000466105
-0.000609837
-0.000634606
-0.000766868
-0.00107374
-0.00143283
-0.00173798
-0.00201224
-0.00231969
-0.00264273
-0.00288844
-0.00296256
-0.00286352
0.000882378
0.000826231
0.000652195
0.000404802
0.000245074
0.00012842
-0.000139861
-0.000473305
-0.000655364
-0.000708115
-0.000823911
-0.00109248
-0.00142812
-0.00173892
-0.00202369
-0.0023258
-0.00263477
-0.00287808
-0.00296403
-0.00286023
0.00087932
0.000816251
0.000640277
0.000380567
0.000182059
5.5083e-05
-0.000173578
-0.000481583
-0.000687609
-0.000771148
-0.000882036
-0.00111879
-0.00142865
-0.00173279
-0.0020232
-0.0023233
-0.0026208
-0.00285989
-0.0029566
-0.0028554
0.00087356
0.000803152
0.000622913
0.000356704
0.000127373
-1.78389e-05
-0.000218773
-0.000495956
-0.000710362
-0.000821801
-0.00093626
-0.00114876
-0.00143406
-0.00172593
-0.0020126
-0.00231053
-0.00259989
-0.00283324
-0.00293811
-0.00284424
0.000864623
0.000787375
0.000600643
0.000330815
7.96618e-05
-8.71859e-05
-0.000272388
-0.000518552
-0.000729503
-0.000860584
-0.000982985
-0.00117881
-0.00144042
-0.00171978
-0.00199721
-0.00228751
-0.00257063
-0.00279781
-0.00290749
-0.00282253
0.000852074
0.000768911
0.000574571
0.000301602
3.58758e-05
-0.000151552
-0.000330274
-0.000549281
-0.000749461
-0.000889936
-0.00101936
-0.00120548
-0.00144619
-0.00171097
-0.00197934
-0.0022573
-0.00253197
-0.00275332
-0.00286434
-0.00278826
0.000835533
0.000747555
0.00054552
0.000268753
-6.9737e-06
-0.000211474
-0.00038877
-0.000586803
-0.000772599
-0.000914338
-0.0010462
-0.00122416
-0.00144893
-0.00169714
-0.00195544
-0.00222184
-0.00248451
-0.00269934
-0.00280911
-0.00274059
0.000814753
0.000723004
0.00051382
0.00023229
-5.06743e-05
-0.000268373
-0.000446302
-0.000628743
-0.000799511
-0.000936883
-0.00106623
-0.00123356
-0.00144447
-0.00167759
-0.00192201
-0.00217719
-0.00242736
-0.00263392
-0.00274128
-0.0026781
0.000789726
0.000694758
0.000479441
0.00019265
-9.63167e-05
-0.000324385
-0.000503802
-0.000673494
-0.000829621
-0.000958469
-0.00108144
-0.00123552
-0.0014297
-0.00164923
-0.00187851
-0.00211958
-0.00235772
-0.00255462
-0.00265862
-0.00259885
0.000760536
0.000662583
0.000441776
0.000149859
-0.000144371
-0.000380902
-0.000562184
-0.000721423
-0.000863042
-0.000980254
-0.00109256
-0.00123098
-0.00140467
-0.00160718
-0.0018224
-0.00204658
-0.00227079
-0.0024572
-0.0025562
-0.00249861
0.00072707
0.000626476
0.000400601
0.000103547
-0.000195648
-0.000439425
-0.000622451
-0.000772689
-0.000900129
-0.0010038
-0.0011012
-0.00122043
-0.00137043
-0.0015492
-0.00174744
-0.00195369
-0.00216021
-0.00233459
-0.00242663
-0.0023697
0.000689267
0.000586151
0.000355694
5.37653e-05
-0.000250652
-0.000501862
-0.000686731
-0.000828445
-0.000942089
-0.00103107
-0.00111034
-0.00120512
-0.00132689
-0.00147499
-0.00164647
-0.00183108
-0.00201658
-0.0021761
-0.00225975
-0.00220215
0.000647084
0.000541729
0.000306877
-3.28978e-07
-0.000309901
-0.000568899
-0.000757389
-0.000891158
-0.00099136
-0.00106509
-0.00112422
-0.00118987
-0.00127566
-0.00138379
-0.00151467
-0.00166366
-0.00182085
-0.00196087
-0.00203527
-0.00197814
0.000600168
0.000492953
0.000254359
-5.95361e-05
-0.000374975
-0.000641558
-0.000835843
-0.000964522
-0.00105223
-0.00111064
-0.00114844
-0.00118203
-0.00122472
-0.00128022
-0.0013521
-0.00143959
-0.00153974
-0.00164204
-0.00170603
-0.00166111
0.000551148
0.000440372
0.000195979
-0.000124952
-0.000446441
-0.000721043
-0.000922987
-0.00105228
-0.00113229
-0.00117626
-0.00119259
-0.00119316
-0.00118742
-0.00118035
-0.00117706
-0.00116342
-0.00113962
-0.00111467
-0.00108837
-0.00102321
0.000501051
0.000383901
0.000130487
-0.000197184
-0.000523257
-0.0008063
-0.00101958
-0.00115555
-0.00123764
-0.00127671
-0.00127502
-0.00124204
-0.00117746
-0.00109226
-0.00100462
-0.000923496
-0.000823091
-0.000636047
-0.000310608
0.000123843
0.000445737
0.000321834
6.01468e-05
-0.000275795
-0.000606775
-0.000894896
-0.0011208
-0.001271
-0.00136598
-0.00141701
-0.00141887
-0.00138532
-0.00130106
-0.00109332
-0.000681968
-8.85406e-05
0.000547809
0.00109066
0.00146038
0.00160663
0.00038586
0.00025845
-1.36114e-05
-0.000364145
-0.000705885
-0.00100093
-0.00122946
-0.00137848
-0.00147284
-0.00152593
-0.00149431
-0.00129004
-0.00089584
-0.000414153
5.00773e-05
0.000443002
0.000770157
0.00104727
0.00125802
0.00134742
0.00032168
0.000199031
-7.39749e-05
-0.000437821
-0.000816268
-0.00116743
-0.00145623
-0.00162906
-0.00163702
-0.00144684
-0.0011179
-0.000737222
-0.000361364
-2.35102e-06
0.000359882
0.000738803
0.00112325
0.00147589
0.00173535
0.00181519
0.000240345
9.77308e-05
-0.000162098
-0.000492467
-0.000822442
-0.00109939
-0.00128831
-0.00136511
-0.00135502
-0.00130035
-0.00122876
-0.00114757
-0.00102593
-0.000799161
-0.000395502
0.000219624
0.000960976
0.00164955
0.00211789
0.00226639
0.000202074
6.82373e-05
-0.00023054
-0.000626699
-0.00102454
-0.0013422
-0.00151312
-0.00150384
-0.00136133
-0.00115022
-0.000881543
-0.000552687
-0.000185881
0.000200424
0.000590137
0.000966728
0.00131202
0.00159747
0.0017839
0.00180666
0.000107864
-3.06985e-05
-0.000276668
-0.000602629
-0.000944111
-0.00125153
-0.00148116
-0.00157391
-0.00149227
-0.00125622
-0.000932528
-0.000579969
-0.000253252
3.63093e-05
0.000324019
0.000635292
0.000964785
0.00127359
0.00150462
0.00157878
0.00537306
0.00163396
-0.00489356
-0.00959221
-0.0103314
-0.00890525
-0.00727411
-0.00598694
-0.00503125
-0.00448008
-0.0043003
-0.00417889
-0.00390651
-0.0035782
-0.00329432
-0.00302731
-0.00281365
-0.0026845
-0.00251402
-0.00224622
-0.00198799
-0.00178431
-0.00160016
-0.00141686
-0.00120765
-0.000969176
-0.000751612
-0.000574049
-0.000399332
-0.000205027
-9.71482e-06
0.000168346
0.000339772
0.000529147
0.000738914
0.000951641
0.00116242
0.00138666
0.00162679
0.00186014
0.0020744
0.0022906
0.00251854
0.00273661
0.00294462
0.00317221
0.0034203
0.00366565
0.00390808
0.00416466
0.0044366
0.00469895
0.00495572
0.00523036
0.00550451
0.00577539
0.00605565
0.00634129
0.00663314
0.0069389
0.00725667
0.00758023
0.00791294
0.00823968
0.00855835
0.00889126
0.00923267
0.00958486
0.00994799
0.0103169
0.0106914
0.0110741
0.0114654
0.0118591
0.0122662
0.0126847
0.0131061
0.0135401
0.0139856
0.0144468
0.0149025
0.0153785
0.0158566
0.0163437
0.0168561
0.017359
0.0178746
0.018415
0.0189438
0.0194932
0.0200672
0.0206297
0.0212148
0.0218201
0.0224169
0.0230428
0.0236971
0.0243275
0.0249913
0.0256923
0.00487169
0.00152836
-0.00479035
-0.00945919
-0.0102568
-0.00886897
-0.00725062
-0.00596938
-0.00501712
-0.00446823
-0.00429073
-0.00417135
-0.00390027
-0.0035728
-0.00328961
-0.003023
-0.00280958
-0.00268093
-0.00251096
-0.00224335
-0.00198524
-0.00178179
-0.00159785
-0.00141477
-0.00120579
-0.000967426
-0.000749943
-0.00057252
-0.000397953
-0.000203748
-8.50103e-06
0.000169489
0.000340827
0.000530122
0.000739838
0.000952524
0.00116325
0.00138743
0.00162754
0.00186087
0.0020751
0.00229125
0.00251916
0.00273723
0.0029452
0.00317274
0.00342082
0.00366615
0.00390856
0.00416511
0.00443704
0.00469938
0.00495612
0.00523075
0.00550489
0.00577574
0.00605599
0.00634162
0.00663345
0.00693919
0.00725695
0.0075805
0.0079132
0.00823994
0.00855859
0.00889149
0.00923289
0.00958507
0.0099482
0.0103171
0.0106916
0.0110743
0.0114655
0.0118593
0.0122664
0.0126848
0.0131063
0.0135402
0.0139858
0.0144469
0.0149026
0.0153787
0.0158567
0.0163438
0.0168562
0.0173591
0.0178747
0.0184151
0.0189439
0.0194933
0.0200673
0.0206298
0.0212149
0.0218202
0.022417
0.0230429
0.0236972
0.0243276
0.0249913
0.0256924
0.00433339
0.00141205
-0.00457388
-0.00919257
-0.0101192
-0.00881787
-0.00722636
-0.00595181
-0.00500277
-0.00445625
-0.00428032
-0.00416208
-0.0038922
-0.00356624
-0.00328453
-0.00301878
-0.00280575
-0.00267755
-0.002508
-0.00224058
-0.00198269
-0.00177948
-0.0015957
-0.00141281
-0.00120402
-0.000965766
-0.000748383
-0.000571113
-0.000396684
-0.000202567
-7.39229e-06
0.000170512
0.000341758
0.000530985
0.000740661
0.000953305
0.00116397
0.00138811
0.0016282
0.00186152
0.00207571
0.00229182
0.00251972
0.00273776
0.00294569
0.00317321
0.00342128
0.0036666
0.00390897
0.0041655
0.00443743
0.00469976
0.00495647
0.00523108
0.00550522
0.00577605
0.00605629
0.0063419
0.00663372
0.00693944
0.0072572
0.00758074
0.00791343
0.00824016
0.0085588
0.00889169
0.00923309
0.00958525
0.00994838
0.0103173
0.0106917
0.0110744
0.0114657
0.0118594
0.0122665
0.012685
0.0131064
0.0135404
0.0139859
0.014447
0.0149028
0.0153788
0.0158569
0.0163439
0.0168563
0.0173592
0.0178747
0.0184152
0.0189439
0.0194934
0.0200674
0.0206299
0.021215
0.0218202
0.0224171
0.0230429
0.0236972
0.0243277
0.0249914
0.0256926
0.00382566
0.00131592
-0.00428782
-0.00884083
-0.00992401
-0.00874547
-0.00719338
-0.0059275
-0.00498354
-0.00444176
-0.00426776
-0.00414967
-0.00388054
-0.00355656
-0.00327729
-0.00301334
-0.00280106
-0.00267309
-0.00250389
-0.00223706
-0.0019798
-0.00177692
-0.00159318
-0.00141038
-0.00120183
-0.000963791
-0.000746562
-0.000569428
-0.000395131
-0.000201155
-6.12504e-06
0.000171657
0.0003428
0.000531945
0.00074156
0.00095415
0.00116476
0.00138885
0.00162892
0.00186221
0.00207636
0.00229242
0.0025203
0.00273832
0.0029462
0.00317369
0.00342176
0.00366706
0.0039094
0.00416591
0.00443783
0.00470015
0.00495682
0.00523143
0.00550556
0.00577637
0.0060566
0.0063422
0.006634
0.00693971
0.00725745
0.00758098
0.00791368
0.0082404
0.00855902
0.00889189
0.00923328
0.00958544
0.00994856
0.0103174
0.0106919
0.0110746
0.0114658
0.0118596
0.0122666
0.0126851
0.0131066
0.0135405
0.013986
0.0144472
0.0149029
0.0153789
0.015857
0.016344
0.0168565
0.0173593
0.0178748
0.0184153
0.018944
0.0194935
0.0200675
0.0206299
0.021215
0.0218203
0.0224172
0.023043
0.0236973
0.0243277
0.0249915
0.0256928
0.0033445
0.0012084
-0.00399134
-0.00846241
-0.0097056
-0.00866367
-0.00715637
-0.00589814
-0.00495952
-0.00442428
-0.00425246
-0.00413344
-0.00386457
-0.00354298
-0.00326709
-0.00300611
-0.00279498
-0.0026667
-0.00249757
-0.00223195
-0.00197608
-0.0017738
-0.00158995
-0.0014071
-0.00119888
-0.000961294
-0.000744296
-0.000567174
-0.00039294
-0.000199211
-4.46823e-06
0.000173131
0.000344156
0.000533166
0.00074265
0.000955157
0.00116572
0.00138975
0.00162977
0.00186302
0.00207712
0.00229313
0.00252097
0.00273895
0.00294678
0.00317424
0.0034223
0.00366757
0.00390989
0.00416638
0.00443829
0.00470059
0.00495722
0.00523182
0.00550594
0.00577672
0.00605694
0.00634253
0.0066343
0.00694
0.00725774
0.00758126
0.00791395
0.00824067
0.00855925
0.00889212
0.0092335
0.00958564
0.00994876
0.0103176
0.0106921
0.0110748
0.011466
0.0118597
0.0122668
0.0126853
0.0131067
0.0135406
0.0139862
0.0144473
0.014903
0.015379
0.0158571
0.0163441
0.0168566
0.0173594
0.0178749
0.0184154
0.0189441
0.0194936
0.0200676
0.02063
0.0212151
0.0218204
0.0224172
0.023043
0.0236974
0.0243278
0.0249916
0.0256932
0.00287604
0.00106531
-0.00370543
-0.00807135
-0.00947154
-0.00857615
-0.00711831
-0.00586647
-0.00493222
-0.00440418
-0.00423485
-0.00411447
-0.00384566
-0.00352657
-0.00325454
-0.00299733
-0.00278753
-0.00265813
-0.00248862
-0.0022248
-0.00197116
-0.00176981
-0.00158578
-0.00140271
-0.00119497
-0.000958237
-0.000741614
-0.000564291
-0.000389936
-0.000196526
-2.22764e-06
0.000175142
0.000346043
0.000534825
0.000744032
0.000956393
0.00116692
0.00139087
0.00163078
0.00186399
0.00207808
0.00229402
0.00252176
0.00273967
0.00294747
0.0031749
0.00342292
0.00366816
0.00391046
0.00416693
0.00443883
0.0047011
0.00495769
0.00523228
0.00550638
0.00577712
0.00605732
0.0063429
0.00663465
0.00694033
0.00725807
0.00758158
0.00791426
0.00824097
0.00855952
0.00889237
0.00923374
0.00958587
0.00994899
0.0103179
0.0106923
0.0110749
0.0114662
0.0118599
0.012267
0.0126854
0.0131069
0.0135408
0.0139863
0.0144475
0.0149031
0.0153791
0.0158572
0.0163442
0.0168567
0.0173596
0.017875
0.0184155
0.0189442
0.0194936
0.0200677
0.0206301
0.0212152
0.0218205
0.0224173
0.0230431
0.0236974
0.0243279
0.0249916
0.0256937
0.00241633
0.000886062
-0.0034316
-0.0076668
-0.0092199
-0.00848161
-0.00707946
-0.00583364
-0.00490229
-0.0043815
-0.0042153
-0.0040939
-0.00382526
-0.00350879
-0.00324083
-0.00298775
-0.00277917
-0.00264782
-0.00247739
-0.00221572
-0.00196487
-0.00176476
-0.0015805
-0.00139709
-0.00119003
-0.00095461
-0.000738585
-0.000560873
-0.000386176
-0.000193101
6.60885e-07
0.000177832
0.00034867
0.000537126
0.000745855
0.000957952
0.00116842
0.00139226
0.00163198
0.00186513
0.00207928
0.00229515
0.00252272
0.00274054
0.00294834
0.00317572
0.00342363
0.00366883
0.00391115
0.00416761
0.00443946
0.0047017
0.00495826
0.00523282
0.00550688
0.00577758
0.00605777
0.00634333
0.00663506
0.00694072
0.00725845
0.00758195
0.00791463
0.00824132
0.00855983
0.00889266
0.00923402
0.00958614
0.00994926
0.0103181
0.0106925
0.0110752
0.0114664
0.0118601
0.0122672
0.0126856
0.013107
0.013541
0.0139865
0.0144476
0.0149033
0.0153793
0.0158574
0.0163443
0.0168568
0.0173597
0.0178752
0.0184157
0.0189444
0.0194938
0.0200678
0.0206302
0.0212153
0.0218206
0.0224174
0.0230432
0.0236975
0.0243279
0.0249917
0.0256943
0.00197447
0.000681433
-0.00316945
-0.00724911
-0.00894959
-0.00837933
-0.00704042
-0.00580069
-0.00487023
-0.00435633
-0.00419405
-0.00407222
-0.00380396
-0.00349021
-0.00322645
-0.00297769
-0.00277026
-0.00263645
-0.0024647
-0.00220525
-0.00195744
-0.00175866
-0.00157413
-0.00139033
-0.00118412
-0.000950412
-0.000735236
-0.000557059
-0.00038188
-0.000189145
4.06311e-06
0.000181167
0.000352104
0.000540206
0.000748267
0.000959962
0.00117033
0.00139395
0.00163334
0.00186643
0.00208072
0.00229657
0.0025239
0.00274163
0.00294946
0.00317675
0.00342448
0.00366961
0.00391197
0.00416841
0.00444019
0.0047024
0.00495896
0.00523348
0.00550748
0.00577814
0.0060583
0.00634383
0.00663553
0.00694118
0.0072589
0.0075824
0.00791506
0.00824173
0.00856021
0.00889301
0.00923435
0.00958646
0.00994958
0.0103184
0.0106928
0.0110754
0.0114667
0.0118603
0.0122674
0.0126858
0.0131072
0.0135412
0.0139867
0.0144478
0.0149035
0.0153795
0.0158575
0.0163445
0.016857
0.0173598
0.0178753
0.0184158
0.0189445
0.0194939
0.0200679
0.0206303
0.0212154
0.0218207
0.0224175
0.0230433
0.0236976
0.024328
0.0249919
0.025695
0.00156198
0.000460097
-0.00292493
-0.00682385
-0.00866162
-0.00826892
-0.00700143
-0.00576824
-0.00483635
-0.00432861
-0.00417103
-0.00404948
-0.00378183
-0.00347086
-0.00321134
-0.00296706
-0.00276089
-0.00262448
-0.00245117
-0.0021939
-0.00194919
-0.00175174
-0.00156688
-0.00138264
-0.00117739
-0.000945671
-0.000731549
-0.000552931
-0.000377256
-0.000184915
7.73852e-06
0.000184951
0.000356217
0.000544032
0.000751323
0.000962512
0.00117272
0.001396
0.00163487
0.00186782
0.00208236
0.00229824
0.00252531
0.00274296
0.00295089
0.00317807
0.00342551
0.00367053
0.00391294
0.00416934
0.00444102
0.00470322
0.00495979
0.00523427
0.0055082
0.00577883
0.00605895
0.00634442
0.00663607
0.00694169
0.00725942
0.00758292
0.00791558
0.00824221
0.00856066
0.00889343
0.00923475
0.00958685
0.00994996
0.0103188
0.0106931
0.0110757
0.011467
0.0118606
0.0122676
0.0126861
0.0131075
0.0135414
0.0139869
0.014448
0.0149037
0.0153797
0.0158577
0.0163447
0.0168572
0.01736
0.0178755
0.018416
0.0189447
0.019494
0.0200681
0.0206305
0.0212156
0.0218208
0.0224177
0.0230434
0.0236977
0.0243281
0.024992
0.0256959
0.00118713
0.000227715
-0.00270666