/*--------------------------------*- C++ -*----------------------------------*\
| =========                 |                                                 |
| \\      /  F ield         | OpenFOAM: The Open Source CFD Toolbox           |
|  \\    /   O peration     | Version:  3.0.1                                 |
|   \\  /    A nd           | Web:      www.OpenFOAM.org                      |
|    \\/     M anipulation  |                                                 |
\*---------------------------------------------------------------------------*/
FoamFile
{
    version     2.0;
    format      ascii;
    class       surfaceScalarField;
    location    "1.7";
    object      phi;
}
// * * * * * * * * * * * * * * * * * * * * * * * * * * * * * * * * * * * * * //

dimensions      [0 3 -1 0 0 0 0];

internalField   nonuniform List<scalar> 
19000
(
1.17422e-06
-2.09034e-07
1.16196e-06
2.96866e-08
1.16401e-06
-3.77927e-09
1.18279e-06
-2.49626e-07
1.21284e-06
8.4724e-08
1.15999e-06
8.32377e-08
1.14938e-06
3.22493e-07
1.1632e-06
3.24987e-07
1.15375e-06
-1.77061e-07
1.1656e-06
-3.9691e-07
1.18919e-06
-2.051e-07
1.17452e-06
-5.1262e-07
1.20287e-06
9.70364e-08
1.17205e-06
-3.31552e-07
1.19224e-06
2.15997e-07
1.16088e-06
8.90714e-08
1.17176e-06
3.08364e-07
1.15144e-06
2.68166e-07
1.14582e-06
2.32198e-07
1.8547e-07
1.11762e-06
1.23029e-06
-2.15067e-07
1.21976e-06
4.0219e-08
1.2205e-06
-4.51879e-09
1.24001e-06
-2.69131e-07
1.26847e-06
5.62614e-08
1.21987e-06
1.31833e-07
1.20324e-06
3.3913e-07
1.22347e-06
3.04748e-07
1.211e-06
-1.64585e-07
1.22162e-06
-4.07535e-07
1.24182e-06
-2.25294e-07
1.23069e-06
-5.01492e-07
1.25345e-06
7.42724e-08
1.23151e-06
-3.09613e-07
1.23837e-06
2.09137e-07
1.22666e-06
1.00781e-07
1.21253e-06
3.22499e-07
1.22253e-06
2.58168e-07
1.18497e-06
2.69755e-07
1.69488e-07
1.20095e-06
1.2873e-06
-2.19586e-07
1.28185e-06
4.56674e-08
1.28003e-06
-2.69836e-09
1.30037e-06
-2.89472e-07
1.3244e-06
3.22392e-08
1.28709e-06
1.69143e-07
1.263e-06
3.63215e-07
1.28546e-06
2.82285e-07
1.27131e-06
-1.5043e-07
1.28002e-06
-4.16245e-07
1.29546e-06
-2.40736e-07
1.29174e-06
-4.9777e-07
1.30853e-06
5.74787e-08
1.29791e-06
-2.98987e-07
1.29405e-06
2.12993e-07
1.29291e-06
1.01922e-07
1.27373e-06
3.4168e-07
1.28064e-06
2.51263e-07
1.25998e-06
2.90415e-07
1.7986e-07
1.2496e-06
1.34583e-06
-2.2131e-07
1.34592e-06
4.55758e-08
1.34182e-06
1.39626e-09
1.3624e-06
-3.10052e-07
1.38086e-06
1.37821e-08
1.35669e-06
1.93313e-07
1.33035e-06
3.89556e-07
1.34855e-06
2.64086e-07
1.33501e-06
-1.3689e-07
1.33978e-06
-4.21015e-07
1.35131e-06
-2.52264e-07
1.35366e-06
-5.00119e-07
1.36816e-06
4.29757e-08
1.36477e-06
-2.95595e-07
1.35982e-06
2.17938e-07
1.35869e-06
1.03052e-07
1.34703e-06
3.53347e-07
1.34455e-06
2.53735e-07
1.33726e-06
2.9771e-07
1.97678e-07
1.31944e-06
1.40687e-06
-2.19826e-07
1.41088e-06
4.15611e-08
1.40586e-06
6.41702e-09
1.42489e-06
-3.2908e-07
1.43825e-06
4.23807e-10
1.42533e-06
2.06232e-07
1.40345e-06
4.1144e-07
1.41382e-06
2.53713e-07
1.40193e-06
-1.25003e-07
1.40201e-06
-4.21096e-07
1.41016e-06
-2.60414e-07
1.41535e-06
-5.05309e-07
1.42987e-06
2.84594e-08
1.42988e-06
-2.95605e-07
1.42873e-06
2.19086e-07
1.42574e-06
1.06039e-07
1.42111e-06
3.57981e-07
1.41479e-06
2.60054e-07
1.41187e-06
3.00634e-07
2.15312e-07
1.39423e-06
1.47166e-06
-2.15814e-07
1.47715e-06
3.60722e-08
1.47273e-06
1.08376e-08
1.48813e-06
-3.44478e-07
1.49739e-06
-8.83331e-09
1.49253e-06
2.1109e-07
1.479e-06
4.24967e-07
1.48244e-06
2.50274e-07
1.4718e-06
-1.14357e-07
1.46822e-06
-4.17518e-07
1.47281e-06
-2.65005e-07
1.47784e-06
-5.10337e-07
1.49248e-06
1.3812e-08
1.49399e-06
-2.97109e-07
1.49733e-06
2.15742e-07
1.49411e-06
1.09263e-07
1.49434e-06
3.5775e-07
1.48724e-06
2.67155e-07
1.48666e-06
3.01211e-07
2.32515e-07
1.46946e-06
1.54097e-06
-2.10568e-07
1.54603e-06
3.10131e-08
1.54301e-06
1.3856e-08
1.55349e-06
-3.54954e-07
1.55934e-06
-1.4689e-08
1.55974e-06
2.10693e-07
1.55474e-06
4.29971e-07
1.55463e-06
2.50379e-07
1.54477e-06
-1.04498e-07
1.53905e-06
-4.11793e-07
1.54004e-06
-2.65999e-07
1.54284e-06
-5.13134e-07
1.55658e-06
6.8965e-11
1.55843e-06
-2.98954e-07
1.56584e-06
2.08332e-07
1.56361e-06
1.11485e-07
1.56806e-06
3.53302e-07
1.56085e-06
2.74368e-07
1.56251e-06
2.99553e-07
2.49277e-07
1.54574e-06
1.61482e-06
-2.05263e-07
1.6187e-06
2.7133e-08
1.61698e-06
1.55836e-08
1.62243e-06
-3.60403e-07
1.62526e-06
-1.75264e-08
1.6289e-06
2.07054e-07
1.63049e-06
4.28383e-07
1.6301e-06
2.50767e-07
1.6212e-06
-9.55925e-08
1.61444e-06
-4.05039e-07
1.61228e-06
-2.63839e-07
1.61183e-06
-5.12685e-07
1.62349e-06
-1.15873e-08
1.62448e-06
-2.99943e-07
1.63521e-06
1.97598e-07
1.63411e-06
1.12591e-07
1.64261e-06
3.448e-07
1.63538e-06
2.81596e-07
1.639e-06
2.95934e-07
2.65045e-07
1.62323e-06
1.69282e-06
-2.00511e-07
1.69569e-06
2.42666e-08
1.69468e-06
1.65886e-08
1.69588e-06
-3.61599e-07
1.69614e-06
-1.77913e-08
1.70166e-06
2.01536e-07
1.70753e-06
4.22513e-07
1.70872e-06
2.49577e-07
1.70117e-06
-8.80419e-08
1.694e-06
-3.97872e-07
1.68949e-06
-2.59323e-07
1.68558e-06
-5.08778e-07
1.69451e-06
-2.05129e-08
1.6934e-06
-2.98831e-07
1.70633e-06
1.84667e-07
1.70561e-06
1.13305e-07
1.71767e-06
3.32741e-07
1.71056e-06
2.88711e-07
1.7157e-06
2.90791e-07
2.79038e-07
1.70171e-06
1.7746e-06
-1.96388e-07
1.77695e-06
2.19135e-08
1.77616e-06
1.73778e-08
1.7742e-06
-3.59632e-07
1.77256e-06
-1.61551e-08
1.77908e-06
1.95019e-07
1.78734e-06
4.14252e-07
1.79062e-06
2.46297e-07
1.78459e-06
-8.20168e-08
1.77725e-06
-3.90533e-07
1.77133e-06
-2.53395e-07
1.76421e-06
-5.01666e-07
1.7705e-06
-2.67945e-08
1.76633e-06
-2.94665e-07
1.78015e-06
1.7085e-07
1.77877e-06
1.14686e-07
1.79347e-06
3.18038e-07
1.78669e-06
2.95491e-07
1.79287e-06
2.84608e-07
2.9043e-07
1.78148e-06
1.86005e-06
-1.92688e-07
1.86231e-06
1.96538e-08
1.86149e-06
1.81956e-08
1.85737e-06
-3.55515e-07
1.85458e-06
-1.33591e-08
1.86159e-06
1.88011e-07
1.87093e-06
4.04906e-07
1.87604e-06
2.41191e-07
1.8714e-06
-7.73792e-08
1.86387e-06
-3.83008e-07
1.85741e-06
-2.46929e-07
1.84758e-06
-4.91833e-07
1.85184e-06
-3.10618e-08
1.8442e-06
-2.87027e-07
1.85783e-06
1.57222e-07
1.85488e-06
1.17636e-07
1.87115e-06
3.01766e-07
1.86499e-06
3.01653e-07
1.87164e-06
2.77957e-07
2.98517e-07
1.86356e-06
1.9493e-06
-1.89152e-07
1.9517e-06
1.72599e-08
1.9508e-06
1.90948e-08
1.94532e-06
-3.50032e-07
1.94195e-06
-9.99734e-09
1.94919e-06
1.80774e-07
1.95885e-06
3.95246e-07
1.96525e-06
2.34792e-07
1.96171e-06
-7.38401e-08
1.95385e-06
-3.75146e-07
1.94748e-06
-2.40562e-07
1.93548e-06
-4.79828e-07
1.93859e-06
-3.41694e-08
1.92761e-06
-2.76049e-07
1.9405e-06
1.44329e-07
1.93555e-06
1.22588e-07
1.9524e-06
2.84912e-07
1.94717e-06
3.06883e-07
1.95358e-06
2.71552e-07
3.02843e-07
1.94925e-06
2.04262e-06
-1.85581e-07
2.04524e-06
1.46353e-08
2.04426e-06
2.00728e-08
2.03797e-06
-3.43736e-07
2.0344e-06
-6.42777e-09
2.04174e-06
1.73435e-07
2.05136e-06
3.8562e-07
2.05854e-06
2.27612e-07
2.05582e-06
-7.11143e-08
2.04744e-06
-3.66774e-07
2.04153e-06
-2.34648e-07
2.02785e-06
-4.66145e-07
2.03059e-06
-3.69163e-08
2.01679e-06
-2.62245e-07
2.02893e-06
1.32188e-07
2.02209e-06
1.29432e-07
2.03875e-06
2.68253e-07
2.03478e-06
3.10854e-07
2.04019e-06
2.6614e-07
3.03316e-07
2.03971e-06
2.14027e-06
-1.81845e-07
2.14317e-06
1.17323e-08
2.14209e-06
2.11488e-08
2.13535e-06
-3.36997e-07
2.13174e-06
-2.81278e-09
2.13911e-06
1.66062e-07
2.14865e-06
3.76085e-07
2.15621e-06
2.20049e-07
2.15409e-06
-6.89937e-08
2.14506e-06
-3.57746e-07
2.13973e-06
-2.29322e-07
2.12474e-06
-4.5115e-07
2.12771e-06
-3.98817e-08
2.11174e-06
-2.46277e-07
2.1234e-06
1.20523e-07
2.11518e-06
1.3765e-07
2.13108e-06
2.52358e-07
2.12869e-06
3.13239e-07
2.13256e-06
2.62272e-07
3.00285e-07
2.13559e-06
2.24251e-06
-1.77869e-07
2.24573e-06
8.51093e-09
2.24451e-06
2.23743e-08
2.23756e-06
-3.3005e-07
2.23395e-06
7.9669e-10
2.24132e-06
1.58695e-07
2.25086e-06
3.6654e-07
2.25853e-06
2.12379e-07
2.2569e-06
-6.73592e-08
2.24712e-06
-3.47964e-07
2.24239e-06
-2.24597e-07
2.22632e-06
-4.35078e-07
2.22982e-06
-4.33801e-08
2.21232e-06
-2.2878e-07
2.2238e-06
1.09049e-07
2.21493e-06
1.46518e-07
2.22961e-06
2.3768e-07
2.22913e-06
3.13713e-07
2.23125e-06
2.60155e-07
2.94479e-07
2.23705e-06
2.34962e-06
-1.73611e-07
2.3532e-06
4.9304e-09
2.35176e-06
2.38146e-08
2.34474e-06
-3.23031e-07
2.34114e-06
4.39313e-09
2.34847e-06
1.51369e-07
2.35818e-06
3.5683e-07
2.36577e-06
2.0479e-07
2.36458e-06
-6.61701e-08
2.35398e-06
-3.37362e-07
2.34983e-06
-2.20447e-07
2.33282e-06
-4.18077e-07
2.33694e-06
-4.74922e-08
2.31845e-06
-2.10296e-07
2.32984e-06
9.76569e-08
2.32107e-06
1.55289e-07
2.33413e-06
2.24628e-07
2.33583e-06
3.12006e-07
2.33632e-06
2.59664e-07
2.86827e-07
2.34398e-06
2.46183e-06
-1.69048e-07
2.46581e-06
9.52677e-10
2.46409e-06
2.55311e-08
2.45707e-06
-3.16012e-07
2.45349e-06
7.97474e-09
2.46074e-06
1.44121e-07
2.47077e-06
3.46805e-07
2.47814e-06
1.97419e-07
2.47741e-06
-6.54443e-08
2.46595e-06
-3.25897e-07
2.46233e-06
-2.16829e-07
2.44452e-06
-4.00273e-07
2.44915e-06
-5.21182e-08
2.43015e-06
-1.91291e-07
2.44133e-06
8.6469e-08
2.43332e-06
1.63304e-07
2.44441e-06
2.13532e-07
2.4484e-06
3.08018e-07
2.44761e-06
2.60456e-07
2.78224e-07
2.45621e-06
2.57942e-06
-1.64169e-07
2.58382e-06
-3.45382e-09
2.58178e-06
2.75726e-08
2.57479e-06
-3.0902e-07
2.57123e-06
1.15285e-08
2.57836e-06
1.36999e-07
2.58882e-06
3.36342e-07
2.59586e-06
1.90378e-07
2.59565e-06
-6.52333e-08
2.58331e-06
-3.13557e-07
2.58016e-06
-2.1368e-07
2.56171e-06
-3.81824e-07
2.56663e-06
-5.70331e-08
2.54753e-06
-1.72188e-07
2.55821e-06
7.57836e-08
2.55146e-06
1.70052e-07
2.56042e-06
2.0457e-07
2.56653e-06
3.0191e-07
2.56499e-06
2.61999e-07
2.69457e-07
2.57376e-06
2.70263e-06
-1.58972e-07
2.70749e-06
-8.313e-09
2.70509e-06
2.99729e-08
2.69812e-06
-3.02055e-07
2.69463e-06
1.5023e-08
2.70157e-06
1.30063e-07
2.71257e-06
3.25338e-07
2.71917e-06
1.83773e-07
2.71954e-06
-6.55971e-08
2.70635e-06
-3.00369e-07
2.70357e-06
-2.10898e-07
2.68469e-06
-3.62946e-07
2.68959e-06
-6.1931e-08
2.67079e-06
-1.53391e-07
2.68059e-06
6.59783e-08
2.67544e-06
1.75203e-07
2.68228e-06
1.97733e-07
2.69013e-06
2.94057e-07
2.68844e-06
2.6369e-07
2.61134e-07
2.69677e-06
2.83175e-06
-1.53457e-07
2.83708e-06
-1.36411e-08
2.83431e-06
3.27477e-08
2.82735e-06
-2.95094e-07
2.82396e-06
1.84063e-08
2.83063e-06
1.23393e-07
2.84227e-06
3.13702e-07
2.84834e-06
1.77706e-07
2.84932e-06
-6.65792e-08
2.83536e-06
-2.86407e-07
2.83278e-06
-2.08324e-07
2.81376e-06
-3.43919e-07
2.81829e-06
-6.64616e-08
2.80016e-06
-1.35267e-07
2.80873e-06
5.74075e-08
2.80532e-06
1.78619e-07
2.81024e-06
1.92806e-07
2.81935e-06
2.84951e-07
2.81806e-06
2.64983e-07
2.53642e-07
2.82555e-06
2.96706e-06
-1.47626e-07
2.97287e-06
-1.94464e-08
2.96973e-06
3.5892e-08
2.96273e-06
-2.88099e-07
2.95953e-06
2.16044e-08
2.96584e-06
1.17088e-07
2.97819e-06
3.01351e-07
2.98364e-06
1.72261e-07
2.98524e-06
-6.81814e-08
2.97064e-06
-2.71809e-07
2.96805e-06
-2.05735e-07
2.94921e-06
-3.25081e-07
2.95302e-06
-7.02652e-08
2.93586e-06
-1.18113e-07
2.94299e-06
5.02834e-08
2.94123e-06
1.80374e-07
2.94459e-06
1.89448e-07
2.95448e-06
2.75055e-07
2.95398e-06
2.65486e-07
2.4714e-07
2.96048e-06
3.10886e-06
-1.41481e-07
3.11514e-06
-2.57273e-08
3.11166e-06
3.93744e-08
3.10457e-06
-2.81008e-07
3.10165e-06
2.4521e-08
3.10748e-06
1.11261e-07
3.12062e-06
2.88212e-07
3.12539e-06
1.67485e-07
3.12756e-06
-7.03438e-08
3.11253e-06
-2.5678e-07
3.10964e-06
-2.02853e-07
3.09133e-06
-3.0677e-07
3.09413e-06
-7.30573e-08
3.07811e-06
-1.02092e-07
3.08374e-06
4.46526e-08
3.08343e-06
1.80684e-07
3.08556e-06
1.87317e-07
3.09592e-06
2.64696e-07
3.09644e-06
2.64958e-07
2.41662e-07
3.10192e-06
3.25745e-06
-1.35024e-07
3.26419e-06
-3.2468e-08
3.26043e-06
4.31339e-08
3.25316e-06
-2.73739e-07
3.25065e-06
2.70408e-08
3.25587e-06
1.06034e-07
3.26985e-06
2.74236e-07
3.27395e-06
1.63381e-07
3.27655e-06
-7.29417e-08
3.26136e-06
-2.41592e-07
3.25787e-06
-1.9936e-07
3.24039e-06
-2.89297e-07
3.24198e-06
-7.46469e-08
3.22712e-06
-8.7228e-08
3.23136e-06
4.04179e-08
3.23223e-06
1.79814e-07
3.23341e-06
1.86129e-07
3.24402e-06
2.54091e-07
3.24571e-06
2.6327e-07
2.37136e-07
3.25023e-06
3.41317e-06
-1.28258e-07
3.42033e-06
-3.96333e-08
3.41639e-06
4.70767e-08
3.40884e-06
-2.66187e-07
3.40684e-06
2.90326e-08
3.41135e-06
1.01526e-07
3.42618e-06
2.5941e-07
3.42967e-06
1.5989e-07
3.43251e-06
-7.57838e-08
3.41748e-06
-2.26564e-07
3.41307e-06
-1.94945e-07
3.39665e-06
-2.72877e-07
3.39699e-06
-7.49894e-08
3.38316e-06
-7.34012e-08
3.38618e-06
3.73995e-08
3.38801e-06
1.7799e-07
3.38846e-06
1.8567e-07
3.39911e-06
2.43449e-07
3.40209e-06
2.60287e-07
2.33457e-07
3.40577e-06
3.57635e-06
-1.21193e-07
3.58388e-06
-4.71652e-08
3.57988e-06
5.10779e-08
3.57192e-06
-2.58228e-07
3.57059e-06
3.03581e-08
3.57428e-06
9.78366e-08
3.58992e-06
2.43773e-07
3.59293e-06
1.56882e-07
3.59576e-06
-7.86173e-08
3.58124e-06
-2.12046e-07
3.57564e-06
-1.8934e-07
3.56036e-06
-2.57598e-07
3.55956e-06
-7.41876e-08
3.54653e-06
-6.03783e-08
3.54852e-06
3.54159e-08
3.55118e-06
1.75327e-07
3.55106e-06
1.85794e-07
3.5615e-06
2.33011e-07
3.56592e-06
2.55861e-07
2.30486e-07
3.56889e-06
3.74736e-06
-1.13843e-07
3.75517e-06
-5.49811e-08
3.75126e-06
5.49858e-08
3.74276e-06
-2.49726e-07
3.74223e-06
3.08879e-08
3.74504e-06
9.50268e-08
3.76139e-06
2.2743e-07
3.76411e-06
1.54157e-07
3.76664e-06
-8.11512e-08
3.75298e-06
-1.98378e-07
3.74602e-06
-1.82385e-07
3.7318e-06
-2.43373e-07
3.73008e-06
-7.24754e-08
3.71759e-06
-4.78809e-08
3.71868e-06
3.43246e-08
3.72215e-06
1.7186e-07
3.72159e-06
1.86344e-07
3.73152e-06
2.23087e-07
3.73751e-06
2.49868e-07
2.27995e-07
3.74e-06
3.92658e-06
-1.06236e-07
3.93457e-06
-6.29748e-08
3.93093e-06
5.86289e-08
3.92175e-06
-2.40546e-07
3.92212e-06
3.05222e-08
3.92405e-06
9.30984e-08
3.94092e-06
2.10556e-07
3.94362e-06
1.51461e-07
3.94554e-06
-8.30794e-08
3.93302e-06
-1.8585e-07
3.92467e-06
-1.74038e-07
3.91127e-06
-2.29971e-07
3.90895e-06
-7.01606e-08
3.89674e-06
-3.56703e-08
3.89697e-06
3.41004e-08
3.90126e-06
1.67568e-07
3.90051e-06
1.87093e-07
3.90957e-06
2.14026e-07
3.91713e-06
2.42302e-07
2.25613e-07
3.91952e-06
4.11442e-06
-9.84093e-08
4.12247e-06
-7.10213e-08
4.11927e-06
6.18266e-08
4.10929e-06
-2.30567e-07
4.1106e-06
2.92119e-08
4.11172e-06
9.1982e-08
4.12888e-06
1.93391e-07
4.13184e-06
1.48504e-07
4.13288e-06
-8.4114e-08
4.12167e-06
-1.74644e-07
4.11204e-06
-1.64411e-07
4.09914e-06
-2.17073e-07
4.0965e-06
-6.75143e-08
4.08447e-06
-2.36443e-08
4.08377e-06
3.47986e-08
4.08886e-06
1.62481e-07
4.08823e-06
1.87727e-07
4.09615e-06
2.06103e-07
4.10504e-06
2.33409e-07
2.22823e-07
4.10783e-06
4.3113e-06
-9.04098e-08
4.31926e-06
-7.89829e-08
4.31669e-06
6.44042e-08
4.30583e-06
-2.19707e-07
4.30806e-06
2.69764e-08
4.30851e-06
9.15346e-08
4.32568e-06
1.76223e-07
4.32919e-06
1.44994e-07
4.32909e-06
-8.4019e-08
4.31925e-06
-1.648e-07
4.30859e-06
-1.53749e-07
4.29584e-06
-2.04321e-07
4.29305e-06
-6.47272e-08
4.28124e-06
-1.18325e-08
4.27953e-06
3.65051e-08
4.28533e-06
1.56678e-07
4.28514e-06
1.87916e-07
4.29181e-06
1.99436e-07
4.30157e-06
2.23646e-07
2.191e-07
4.3053e-06
4.51766e-06
-8.22924e-08
4.52539e-06
-8.67158e-08
4.52358e-06
6.62103e-08
4.51182e-06
-2.07948e-07
4.51489e-06
2.39099e-08
4.51487e-06
9.15507e-08
4.53173e-06
1.59368e-07
4.53608e-06
1.40645e-07
4.5347e-06
-8.26366e-08
4.5261e-06
-1.56209e-07
4.51473e-06
-1.42375e-07
4.5018e-06
-1.91386e-07
4.49896e-06
-6.18896e-08
4.48747e-06
-3.43603e-10
4.4847e-06
3.92733e-08
4.4911e-06
1.50283e-07
4.49165e-06
1.87367e-07
4.49712e-06
1.93965e-07
4.50716e-06
2.13599e-07
2.14076e-07
4.51219e-06
4.73394e-06
-7.41163e-08
4.7413e-06
-9.40785e-08
4.74038e-06
6.71364e-08
4.72778e-06
-1.95352e-07
4.73151e-06
2.01754e-08
4.73127e-06
9.17931e-08
4.74751e-06
1.43134e-07
4.7529e-06
1.35255e-07
4.75019e-06
-7.99341e-08
4.74263e-06
-1.48646e-07
4.7309e-06
-1.30639e-07
4.71748e-06
-1.77967e-07
4.71459e-06
-5.90006e-08
4.70359e-06
1.06549e-08
4.69979e-06
4.30696e-08
4.70659e-06
1.43485e-07
4.70813e-06
1.85827e-07
4.71261e-06
1.8948e-07
4.72237e-06
2.03847e-07
2.07661e-07
4.72878e-06
4.96062e-06
-6.59433e-08
4.96748e-06
-1.00938e-07
4.96749e-06
6.71328e-08
4.95422e-06
-1.82082e-07
4.9584e-06
1.59949e-08
4.95817e-06
9.20235e-08
4.9735e-06
1.27803e-07
4.98002e-06
1.28737e-07
4.9761e-06
-7.60174e-08
4.96928e-06
-1.41821e-07
4.95749e-06
-1.18857e-07
4.94334e-06
-1.63817e-07
4.94032e-06
-5.59765e-08
4.93007e-06
2.09064e-08
4.92537e-06
4.77718e-08
4.93232e-06
1.3653e-07
4.935e-06
1.83149e-07
4.93879e-06
1.85689e-07
4.94783e-06
1.94811e-07
2.00094e-07
4.95539e-06
5.19821e-06
-5.78364e-08
5.20445e-06
-1.07176e-07
5.20537e-06
6.62073e-08
5.19167e-06
-1.68379e-07
5.19607e-06
1.15976e-08
5.19602e-06
9.20726e-08
5.21027e-06
1.13547e-07
5.21784e-06
1.21167e-07
5.21289e-06
-7.10652e-08
5.20652e-06
-1.3545e-07
5.1949e-06
-1.0724e-07
5.17987e-06
-1.48786e-07
5.17658e-06
-5.26843e-08
5.16743e-06
3.00545e-08
5.16201e-06
5.31904e-08
5.16883e-06
1.29716e-07
5.17269e-06
1.79289e-07
5.17608e-06
1.82294e-07
5.18421e-06
1.86689e-07
1.91849e-07
5.19245e-06
5.44721e-06
-4.98598e-08
5.45273e-06
-1.12691e-07
5.45453e-06
6.4404e-08
5.44065e-06
-1.54493e-07
5.4451e-06
7.14292e-09
5.44529e-06
9.18842e-08
5.45843e-06
1.00407e-07
5.46685e-06
1.12741e-07
5.46101e-06
-6.52206e-08
5.45482e-06
-1.29258e-07
5.44353e-06
-9.59488e-08
5.42757e-06
-1.32829e-07
5.42386e-06
-4.89792e-08
5.4162e-06
3.77223e-08
5.41031e-06
5.90728e-08
5.41668e-06
1.23347e-07
5.42167e-06
1.74303e-07
5.42494e-06
1.79027e-07
5.43214e-06
1.79484e-07
1.8345e-07
5.44054e-06
5.70818e-06
-4.20801e-08
5.71289e-06
-1.17401e-07
5.71551e-06
6.17796e-08
5.70167e-06
-1.4065e-07
5.70613e-06
2.68291e-09
5.7065e-06
9.15179e-08
5.71848e-06
8.84243e-08
5.72758e-06
1.03642e-07
5.72091e-06
-5.85525e-08
5.71454e-06
-1.22887e-07
5.70374e-06
-8.51497e-08
5.68708e-06
-1.16173e-07
5.68282e-06
-4.47112e-08
5.67686e-06
4.36815e-08
5.67084e-06
6.50857e-08
5.6765e-06
1.17695e-07
5.68246e-06
1.68339e-07
5.68581e-06
1.75675e-07
5.69222e-06
1.73079e-07
1.75306e-07
5.70036e-06
5.98168e-06
-3.45674e-08
5.98552e-06
-1.21236e-07
5.98892e-06
5.83788e-08
5.97528e-06
-1.2701e-07
5.9798e-06
-1.83958e-09
5.98018e-06
9.11371e-08
5.9909e-06
7.7706e-08
6.00055e-06
9.39899e-08
5.993e-06
-5.1007e-08
5.98596e-06
-1.15845e-07
5.97593e-06
-7.51209e-08
5.95914e-06
-9.93755e-08
5.95423e-06
-3.98099e-08
5.94993e-06
4.79878e-08
5.94414e-06
7.08711e-08
5.94887e-06
1.12964e-07
5.95563e-06
1.61583e-07
5.95923e-06
1.72076e-07
5.96498e-06
1.67323e-07
1.67622e-07
5.97267e-06
6.26832e-06
-2.7397e-08
6.27121e-06
-1.24123e-07
6.27538e-06
5.42036e-08
6.26193e-06
-1.13563e-07
6.26671e-06
-6.61647e-09
6.26703e-06
9.08171e-08
6.27621e-06
6.8527e-08
6.28626e-06
8.39395e-08
6.27786e-06
-4.26058e-08
6.26954e-06
-1.07528e-07
6.26068e-06
-6.62605e-08
6.24447e-06
-8.31621e-08
6.23889e-06
-3.42317e-08
6.23598e-06
5.08985e-08
6.23074e-06
7.61093e-08
6.23449e-06
1.09218e-07
6.24177e-06
1.54302e-07
6.24576e-06
1.68087e-07
6.25097e-06
1.62109e-07
1.60416e-07
6.25818e-06
6.56872e-06
-2.06499e-08
6.57057e-06
-1.25974e-07
6.57557e-06
4.92076e-08
6.56218e-06
-1.00174e-07
6.56738e-06
-1.18142e-08
6.56783e-06
9.03623e-08
6.57504e-06
6.13222e-08
6.58531e-06
7.36668e-08
6.57637e-06
-3.36646e-08
6.56653e-06
-9.76933e-08
6.55892e-06
-5.86475e-08
6.5438e-06
-6.80388e-08
6.53753e-06
-2.79586e-08
6.53563e-06
5.27918e-08
6.53116e-06
8.05775e-08
6.53399e-06
1.06396e-07
6.54149e-06
1.46795e-07
6.54601e-06
1.63571e-07
6.55075e-06
1.57367e-07
1.53637e-07
6.55753e-06
6.88355e-06
-1.44106e-08
6.88426e-06
-1.26679e-07
6.89015e-06
4.33117e-08
6.8767e-06
-8.6719e-08
6.88233e-06
-1.74429e-08
6.88338e-06
8.93063e-08
6.88822e-06
5.64873e-08
6.8984e-06
6.34857e-08
6.88957e-06
-2.48393e-08
6.8783e-06
-8.64209e-08
6.87145e-06
-5.17935e-08
6.85771e-06
-5.42991e-08
6.85084e-06
-2.1087e-08
6.84958e-06
5.4049e-08
6.84602e-06
8.41406e-08
6.84803e-06
1.04382e-07
6.85548e-06
1.39342e-07
6.86062e-06
1.5843e-07
6.86498e-06
1.53013e-07
1.47286e-07
6.87133e-06
7.21349e-06
-8.76798e-09
7.21293e-06
-1.26113e-07
7.21979e-06
3.64489e-08
7.20621e-06
-7.3142e-08
7.21212e-06
-2.33494e-08
7.21441e-06
8.70194e-08
7.21668e-06
5.42155e-08
7.22626e-06
5.39038e-08
7.21812e-06
-1.67011e-08
7.20563e-06
-7.39337e-08
7.19891e-06
-4.50738e-08
7.18669e-06
-4.2078e-08
7.17954e-06
-1.39288e-08
7.17857e-06
5.50152e-08
7.17593e-06
8.67844e-08
7.17731e-06
1.02999e-07
7.18444e-06
1.32212e-07
7.19023e-06
1.5264e-07
7.19437e-06
1.48874e-07
1.41442e-07
7.20021e-06
7.55927e-06
-3.80894e-09
7.55729e-06
-1.24138e-07
7.56515e-06
2.85914e-08
7.55151e-06
-5.95039e-08
7.55723e-06
-2.90692e-08
7.56153e-06
8.2718e-08
7.56138e-06
5.43667e-08
7.56956e-06
4.57281e-08
7.56256e-06
-9.70337e-09
7.54927e-06
-6.06467e-08
7.54216e-06
-3.79594e-08
7.53138e-06
-3.12991e-08
7.52424e-06
-6.79133e-09
7.52338e-06
5.58728e-08
7.52159e-06
8.85738e-08
7.52255e-06
1.0204e-07
7.52913e-06
1.25638e-07
7.53548e-06
1.4629e-07
7.53965e-06
1.44703e-07
1.36181e-07
7.54491e-06
7.92162e-06
3.8463e-10
7.91812e-06
-1.2064e-07
7.92695e-06
1.97613e-08
7.91348e-06
-4.60302e-08
7.91837e-06
-3.39631e-08
7.92507e-06
7.60198e-08
7.92318e-06
5.62512e-08
7.92913e-06
3.97815e-08
7.92334e-06
-3.91575e-09
7.90986e-06
-4.71609e-08
7.9021e-06
-3.02065e-08
7.8925e-06
-2.16951e-08
7.88562e-06
9.01254e-11
7.8848e-06
5.66873e-08
7.88379e-06
8.95889e-08
7.8845e-06
1.01334e-07
7.89038e-06
1.1975e-07
7.89708e-06
1.39591e-07
7.90153e-06
1.40259e-07
1.31475e-07
7.90623e-06
8.30132e-06
3.74259e-09
8.29622e-06
-1.15532e-07
8.30591e-06
1.0062e-08
8.2929e-06
-3.30163e-08
8.29628e-06
-3.73472e-08
8.30529e-06
6.70167e-08
8.30261e-06
5.89297e-08
8.30575e-06
3.6638e-08
8.30101e-06
8.26428e-10
8.28806e-06
-3.42071e-08
8.27972e-06
-2.1865e-08
8.27085e-06
-1.28282e-08
8.26437e-06
6.56393e-09
8.26362e-06
5.74428e-08
8.26329e-06
8.99204e-08
8.2639e-06
1.00724e-07
8.26908e-06
1.14569e-07
8.27587e-06
1.32802e-07
8.28071e-06
1.35421e-07
1.27162e-07
8.28502e-06
8.69919e-06
6.21327e-09
8.69245e-06
-1.08795e-07
8.70276e-06
-2.39274e-10
8.69058e-06
-2.08368e-08
8.69161e-06
-3.83814e-08
8.70248e-06
5.61486e-08
8.69984e-06
6.1567e-08
8.69998e-06
3.65011e-08
8.69623e-06
4.57846e-09
8.68458e-06
-2.25607e-08
8.67584e-06
-1.31288e-08
8.66738e-06
-4.3645e-09
8.6613e-06
1.26434e-08
8.66063e-06
5.81102e-08
8.66092e-06
8.96296e-08
8.66157e-06
1.0008e-07
8.66607e-06
1.10068e-07
8.67274e-06
1.26134e-07
8.67795e-06
1.30212e-07
1.23018e-07
8.68209e-06
9.11606e-06
7.77729e-09
9.1078e-06
-1.00539e-07
9.11824e-06
-1.06822e-08
9.10739e-06
-9.98073e-09
9.10475e-06
-3.57409e-08
9.11647e-06
4.44199e-08
9.11446e-06
6.35766e-08
9.11269e-06
3.82777e-08
9.10986e-06
7.40396e-09
9.1001e-06
-1.27941e-08
9.09135e-06
-4.38067e-09
9.08308e-06
3.89901e-09
9.07727e-06
1.84557e-08
9.07669e-06
5.86877e-08
9.07754e-06
8.87791e-08
9.07836e-06
9.92649e-08
9.08224e-06
1.06189e-07
9.08862e-06
1.19752e-07
9.0941e-06
1.24735e-07
1.18853e-07
9.09826e-06
9.55278e-06
8.45222e-09
9.54323e-06
-9.09832e-08
9.55329e-06
-2.07467e-08
9.54422e-06
-9.03451e-10
9.53746e-06
-2.89816e-08
9.54772e-06
3.41607e-08
9.54818e-06
6.31179e-08
9.54568e-06
4.07764e-08
9.54308e-06
9.99965e-09
9.53526e-06
-4.96973e-09
9.52707e-06
3.80141e-09
9.51894e-06
1.20374e-08
9.51327e-06
2.41193e-08
9.51272e-06
5.92385e-08
9.51403e-06
8.7469e-08
9.51515e-06
9.81446e-08
9.51851e-06
1.02827e-07
9.52449e-06
1.13775e-07
9.53011e-06
1.19119e-07
1.14572e-07
9.53439e-06
1.00103e-05
8.30217e-09
9.99976e-06
-8.04583e-08
1.00088e-05
-2.98283e-08
1.00021e-05
5.84738e-09
9.99207e-06
-1.89651e-08
1.00002e-05
2.60727e-08
1.00035e-05
5.97764e-08
1.00006e-05
4.36917e-08
9.99723e-06
1.3362e-08
9.99094e-06
1.3178e-09
9.9837e-06
1.10359e-08
9.97594e-06
1.97978e-08
9.97036e-06
2.97037e-08
9.96969e-06
5.99049e-08
9.97134e-06
8.5827e-08
9.97284e-06
9.66445e-08
9.97583e-06
9.98349e-08
9.98133e-06
1.0827e-07
9.98695e-06
1.135e-07
1.1015e-07
9.99137e-06
1.04895e-05
7.44462e-09
1.04784e-05
-6.9371e-08
1.04859e-05
-3.73484e-08
1.0482e-05
9.82394e-09
1.04701e-05
-7.13259e-09
1.04754e-05
2.08292e-08
1.04809e-05
5.4258e-08
1.04783e-05
4.62733e-08
1.04737e-05
1.79186e-08
1.04681e-05
6.9696e-09
1.04621e-05
1.70688e-08
1.0455e-05
2.68199e-08
1.04495e-05
3.5196e-08
1.04487e-05
6.07835e-08
1.04505e-05
8.39916e-08
1.04524e-05
9.47686e-08
1.04552e-05
9.70578e-08
1.04602e-05
1.03241e-07
1.04657e-05
1.07999e-07
1.05637e-07
1.04702e-05
1.09914e-05
6.04058e-09
1.09802e-05
-5.81382e-08
1.09857e-05
-4.28121e-08
1.09846e-05
1.08495e-08
1.09723e-05
5.19866e-09
1.09742e-05
1.89443e-08
1.09809e-05
4.75872e-08
1.09794e-05
4.77023e-08
1.09738e-05
2.3528e-08
1.09681e-05
1.26983e-08
1.09631e-05
2.20125e-08
1.09571e-05
3.2877e-08
1.09519e-05
4.03905e-08
1.09508e-05
6.19034e-08
1.09526e-05
8.21475e-08
1.09548e-05
9.25712e-08
1.09575e-05
9.43771e-08
1.09621e-05
9.86524e-08
1.09674e-05
1.02674e-07
1.01128e-07
1.09719e-05
1.15171e-05
4.29652e-09
1.15062e-05
-4.71997e-08
1.15092e-05
-4.58308e-08
1.15109e-05
9.15992e-09
1.14992e-05
1.68263e-08
1.14978e-05
2.04142e-08
1.15043e-05
4.10223e-08
1.15046e-05
4.74852e-08
1.14986e-05
2.95018e-08
1.14923e-05
1.89529e-08
1.1488e-05
2.63227e-08
1.1483e-05
3.78543e-08
1.14784e-05
4.50358e-08
1.14771e-05
6.31883e-08
1.14788e-05
8.04493e-08
1.14812e-05
9.01376e-08
1.14839e-05
9.17028e-08
1.14881e-05
9.44705e-08
1.14933e-05
9.75188e-08
9.66926e-08
1.14977e-05
1.20677e-05
2.44587e-09
1.20574e-05
-3.69764e-08
1.20578e-05
-4.61538e-08
1.20616e-05
5.31414e-09
1.20517e-05
2.67194e-08
1.20474e-05
2.47358e-08
1.20526e-05
3.58485e-08
1.20545e-05
4.556e-08
1.2049e-05
3.49572e-08
1.20422e-05
2.57924e-08
1.2038e-05
3.05426e-08
1.2034e-05
4.18291e-08
1.20301e-05
4.89281e-08
1.20288e-05
6.44843e-08
1.20303e-05
7.89549e-08
1.20329e-05
8.76011e-08
1.20356e-05
8.89771e-08
1.20394e-05
9.06671e-08
1.20443e-05
9.25557e-08
9.22955e-08
1.20487e-05
1.26443e-05
7.32272e-10
1.26352e-05
-2.78584e-08
1.26327e-05
-4.36852e-08
1.26378e-05
2.2702e-10
1.26305e-05
3.40438e-08
1.26242e-05
3.10112e-08
1.26271e-05
3.29474e-08
1.26302e-05
4.24618e-08
1.26261e-05
3.90995e-08
1.2619e-05
3.28948e-08
1.26145e-05
3.50326e-08
1.26112e-05
4.51124e-08
1.26081e-05
5.19898e-08
1.26071e-05
6.55573e-08
1.26083e-05
7.76657e-08
1.26108e-05
8.50946e-08
1.26137e-05
8.61741e-08
1.26171e-05
8.71739e-08
1.26218e-05
8.78818e-08
8.78304e-08
1.26263e-05
1.32483e-05
-6.25542e-10
1.32406e-05
-2.0189e-08
1.32355e-05
-3.85246e-08
1.32405e-05
-4.82023e-09
1.32364e-05
3.81487e-08
1.32293e-05
3.81161e-08
1.32296e-05
3.2634e-08
1.32329e-05
3.91631e-08
1.32305e-05
4.14988e-08
1.32238e-05
3.96189e-08
1.32189e-05
3.99053e-08
1.32159e-05
4.80929e-08
1.32136e-05
5.43276e-08
1.32129e-05
6.62075e-08
1.32141e-05
7.6476e-08
1.32165e-05
8.27191e-08
1.32194e-05
8.33087e-08
1.32227e-05
8.38672e-08
1.32269e-05
8.3624e-08
8.32872e-08
1.32315e-05
1.3881e-05
-1.46352e-09
1.38749e-05
-1.41153e-08
1.38675e-05
-3.11158e-08
1.38713e-05
-8.55664e-09
1.38705e-05
3.88867e-08
1.38638e-05
4.48478e-08
1.38617e-05
3.47467e-08
1.38641e-05
3.66879e-08
1.38634e-05
4.2214e-08
1.38578e-05
4.52511e-08
1.38527e-05
4.50184e-08
1.38497e-05
5.10591e-08
1.38479e-05
5.61373e-08
1.38477e-05
6.64656e-08
1.3849e-05
7.51655e-08
1.38512e-05
8.04996e-08
1.3854e-05
8.04643e-08
1.38573e-05
8.06044e-08
1.38611e-05
7.98089e-08
7.88186e-08
1.38656e-05
1.45439e-05
-1.71069e-09
1.45392e-05
-9.44074e-09
1.45305e-05
-2.23345e-08
1.45321e-05
-1.01799e-08
1.45341e-05
3.68877e-08
1.45287e-05
5.01918e-08
1.45248e-05
3.8682e-08
1.45257e-05
3.57862e-08
1.45261e-05
4.17874e-08
1.45221e-05
4.93273e-08
1.45171e-05
4.99798e-08
1.4514e-05
5.41026e-08
1.45125e-05
5.76592e-08
1.45126e-05
6.64184e-08
1.45141e-05
7.36418e-08
1.45163e-05
7.83166e-08
1.4519e-05
7.77589e-08
1.45223e-05
7.73208e-08
1.45258e-05
7.63093e-08
7.46572e-08
1.45299e-05
1.52386e-05
-1.40099e-09
1.52351e-05
-5.93813e-09
1.52259e-05
-1.31526e-08
1.5225e-05
-9.3016e-09
1.52286e-05
3.33081e-08
1.52253e-05
5.35252e-08
1.52204e-05
4.35758e-08
1.52194e-05
3.6722e-08
1.52201e-05
4.1068e-08
1.52177e-05
5.17631e-08
1.52135e-05
5.42191e-08
1.52103e-05
5.72235e-08
1.52089e-05
5.90938e-08
1.52092e-05
6.61255e-08
1.52108e-05
7.20083e-08
1.52132e-05
7.59981e-08
1.52157e-05
7.52133e-08
1.5219e-05
7.40731e-08
1.52224e-05
7.29008e-08
7.0931e-08
1.52261e-05
1.59666e-05
-6.35386e-10
1.59639e-05
-3.28735e-09
1.59552e-05
-4.41896e-09
1.59519e-05
-6.05881e-09
1.59558e-05
2.94877e-08
1.59546e-05
5.46524e-08
1.59497e-05
4.8542e-08
1.59471e-05
3.93169e-08
1.59472e-05
4.08972e-08
1.59462e-05
5.28114e-08
1.59431e-05
5.73154e-08
1.59401e-05
6.02157e-08
1.59387e-05
6.05053e-08
1.59391e-05
6.57398e-08
1.59408e-05
7.02941e-08
1.59432e-05
7.35567e-08
1.59458e-05
7.26916e-08
1.59488e-05
7.10044e-08
1.59523e-05
6.94406e-08
6.7571e-08
1.59556e-05
1.67295e-05
4.50769e-10
1.67273e-05
-1.09514e-09
1.67196e-05
3.25495e-09
1.67146e-05
-9.82513e-10
1.67175e-05
2.65547e-08
1.67183e-05
5.38652e-08
1.6714e-05
5.27971e-08
1.67102e-05
4.31343e-08
1.67094e-05
4.17302e-08
1.67092e-05
5.30452e-08
1.67073e-05
5.91966e-08
1.67049e-05
6.26384e-08
1.67034e-05
6.19444e-08
1.67038e-05
6.53534e-08
1.67056e-05
6.85209e-08
1.6708e-05
7.11004e-08
1.67107e-05
7.00559e-08
1.67135e-05
6.81534e-08
1.6717e-05
6.59686e-08
6.43467e-08
1.67202e-05
1.75291e-05
1.69152e-09
1.75271e-05
8.99405e-10
1.75208e-05
9.61521e-09
1.75146e-05
5.22361e-09
1.75159e-05
2.5199e-08
1.75179e-05
5.1893e-08
1.75148e-05
5.58471e-08
1.75104e-05
4.75532e-08
1.75085e-05
4.35988e-08
1.75084e-05
5.31595e-08
1.75076e-05
6.0035e-08
1.7506e-05
6.42044e-08
1.75047e-05
6.32402e-08
1.7505e-05
6.50407e-08
1.75068e-05
6.67668e-08
1.75093e-05
6.86266e-08
1.7512e-05
6.73549e-08
1.75147e-05
6.54002e-08
1.75181e-05
6.26425e-08
6.10618e-08
1.75213e-05
1.83671e-05
2.94604e-09
1.8365e-05
2.98688e-09
1.836e-05
1.46267e-08
1.83534e-05
1.18069e-08
1.8353e-05
2.55953e-08
1.83553e-05
4.95843e-08
1.83536e-05
5.76165e-08
1.83492e-05
5.18634e-08
1.83465e-05
4.63558e-08
1.8346e-05
5.36255e-08
1.83459e-05
6.01362e-08
1.83451e-05
6.49823e-08
1.83443e-05
6.40352e-08
1.83446e-05
6.48343e-08
1.83462e-05
6.50831e-08
1.83487e-05
6.61591e-08
1.83514e-05
6.46219e-08
1.83542e-05
6.26561e-08
1.83573e-05
5.95278e-08
5.77132e-08
1.83606e-05
1.92452e-05
4.10883e-09
1.92429e-05
5.3227e-09
1.9239e-05
1.85103e-08
1.92327e-05
1.81356e-08
1.92308e-05
2.75183e-08
1.92327e-05
4.76907e-08
1.9232e-05
5.82904e-08