/*--------------------------------*- C++ -*----------------------------------*\
| =========                 |                                                 |
| \\      /  F ield         | OpenFOAM: The Open Source CFD Toolbox           |
|  \\    /   O peration     | Version:  3.0.1                                 |
|   \\  /    A nd           | Web:      www.OpenFOAM.org                      |
|    \\/     M anipulation  |                                                 |
\*---------------------------------------------------------------------------*/
FoamFile
{
    version     2.0;
    format      ascii;
    class       volVectorField;
    location    "1.7";
    object      U;
}
// * * * * * * * * * * * * * * * * * * * * * * * * * * * * * * * * * * * * * //

dimensions      [0 1 -1 0 0 0 0];

internalField   nonuniform List<vector> 
9600
(
(0.863221 -0.00205892 0)
(1.13675 0.000221113 0)
(0.862944 -3.23772e-05 0)
(1.11797 -0.00306288 0)
(0.915346 0.00154825 0)
(1.15265 0.000591948 0)
(0.843624 0.00518949 0)
(1.11206 0.00606633 0)
(0.889862 -0.00365486 0)
(1.07688 -0.00837688 0)
(0.924183 -0.00438413 0)
(1.10388 -0.0133137 0)
(0.914976 0.00329329 0)
(1.13355 -0.0106376 0)
(0.883953 0.00755703 0)
(1.14492 0.00242156 0)
(0.855016 0.0120829 0)
(1.13599 0.0110927 0)
(0.840215 0.0100531 0)
(1.1129 0.00920772 0)
(0.874028 -0.00213366 0)
(1.1261 0.00038377 0)
(0.876866 -4.14891e-05 0)
(1.10656 -0.0033262 0)
(0.926708 0.000949127 0)
(1.13833 0.00169484 0)
(0.864528 0.00555512 0)
(1.09089 0.00574951 0)
(0.916577 -0.00338279 0)
(1.05536 -0.00861943 0)
(0.944597 -0.00508252 0)
(1.07856 -0.0128793 0)
(0.93876 0.00232526 0)
(1.10103 -0.00961657 0)
(0.918566 0.00695491 0)
(1.09689 0.00343285 0)
(0.914931 0.0123159 0)
(1.05895 0.0109385 0)
(0.94108 0.0120971 0)
(0.993831 0.0076911 0)
(0.89365 -0.00219462 0)
(1.10546 0.00049033 0)
(0.901443 -4.69062e-05 0)
(1.08573 -0.00362747 0)
(0.947526 0.000570459 0)
(1.11216 0.00240014 0)
(0.901862 0.00586456 0)
(1.05997 0.00532869 0)
(0.950199 -0.00310636 0)
(1.02811 -0.00890516 0)
(0.969601 -0.00551286 0)
(1.04704 -0.0127152 0)
(0.971119 0.00174059 0)
(1.06385 -0.00912175 0)
(0.964253 0.0067895 0)
(1.04926 0.0036825 0)
(0.970565 0.0128925 0)
(1.01195 0.010763 0)
(0.985147 0.0131085 0)
(0.979363 0.00839501 0)
(0.918495 -0.00222449 0)
(1.07842 0.000515818 0)
(0.930209 -1.40963e-05 0)
(1.06014 -0.00389741 0)
(0.970903 0.000302514 0)
(1.08089 0.00283709 0)
(0.942103 0.00627991 0)
(1.03299 0.00494451 0)
(0.977284 -0.00283829 0)
(1.00744 -0.00906525 0)
(0.986554 -0.00579496 0)
(1.02278 -0.0127437 0)
(0.993762 0.00138499 0)
(1.03863 -0.00900783 0)
(0.994617 0.00709054 0)
(1.02653 0.00363972 0)
(0.997649 0.0136039 0)
(1.00409 0.0107362 0)
(0.997461 0.0134754 0)
(0.991202 0.00959769 0)
(0.943934 -0.00222197 0)
(1.05065 0.000483783 0)
(0.95651 4.63886e-05 0)
(1.03581 -0.00415691 0)
(0.98971 8.25574e-05 0)
(1.05183 0.00309531 0)
(0.973944 0.00671294 0)
(1.01672 0.00468088 0)
(0.993266 -0.00258728 0)
(0.997008 -0.00910357 0)
(0.993675 -0.00602723 0)
(1.00838 -0.0128508 0)
(1.00302 0.000999347 0)
(1.02481 -0.00896047 0)
(1.00752 0.00727457 0)
(1.01951 0.0036978 0)
(1.00756 0.0140095 0)
(1.00746 0.0108562 0)
(1.00364 0.0137823 0)
(0.999239 0.0105919 0)
(0.965813 -0.00219004 0)
(1.02745 0.000424155 0)
(0.976226 0.000106049 0)
(1.01724 -0.00438637 0)
(1.00048 -7.3769e-05 0)
(1.02938 0.0032238 0)
(0.993348 0.00702193 0)
(1.00996 0.00456797 0)
(1.00076 -0.00236305 0)
(0.99384 -0.00905224 0)
(0.995552 -0.00618135 0)
(1.0004 -0.0129822 0)
(1.00377 0.000585577 0)
(1.01634 -0.00896416 0)
(1.01021 0.00720936 0)
(1.01687 0.00385305 0)
(1.01093 0.01405 0)
(1.01051 0.0111383 0)
(1.00818 0.0139311 0)
(1.00402 0.0114002 0)
(0.98182 -0.00214013 0)
(1.01154 0.000361836 0)
(0.988603 0.000149873 0)
(1.0057 -0.00455344 0)
(1.00396 -0.000173821 0)
(1.01419 0.00325261 0)
(1.00218 0.00717265 0)
(1.00814 0.00455252 0)
(1.00401 -0.00215843 0)
(0.994118 -0.00894112 0)
(0.99614 -0.00624443 0)
(0.995843 -0.0130823 0)
(1.00111 0.00018489 0)
(1.00943 -0.00902338 0)
(1.00836 0.00701566 0)
(1.01417 0.00396512 0)
(1.01172 0.0139049 0)
(1.01191 0.0114859 0)
(1.01095 0.0138702 0)
(1.00714 0.0121957 0)
(0.991815 -0.00208587 0)
(1.00269 0.000312096 0)
(0.995193 0.000176773 0)
(0.999883 -0.00465031 0)
(1.00304 -0.000232067 0)
(1.00475 0.0032159 0)
(1.00448 0.00719233 0)
(1.00777 0.00456609 0)
(1.00566 -0.00196824 0)
(0.995659 -0.00879942 0)
(0.996948 -0.00622484 0)
(0.993378 -0.0131086 0)
(0.997917 -0.000174145 0)
(1.00311 -0.00907954 0)
(1.00466 0.00671563 0)
(1.01047 0.00401107 0)
(1.01077 0.0136388 0)
(1.0117 0.0118162 0)
(1.01178 0.0136954 0)
(1.00856 0.0130173 0)
(0.99713 -0.00203583 0)
(0.998822 0.000276944 0)
(0.998203 0.000191767 0)
(0.997583 -0.0046871 0)
(1.00056 -0.000252507 0)
(0.999259 0.0031414 0)
(1.00379 0.00712226 0)
(1.00743 0.0045625 0)
(1.0067 -0.00180157 0)
(0.997479 -0.00864617 0)
(0.998057 -0.00613871 0)
(0.992402 -0.0130477 0)
(0.995268 -0.000462753 0)
(0.997701 -0.00908224 0)
(1.00027 0.00631554 0)
(1.00591 0.00403464 0)
(1.00813 0.0132293 0)
(1.00976 0.0121255 0)
(1.01063 0.0134661 0)
(1.00813 0.0137924 0)
(0.999518 -0.00199238 0)
(0.997657 0.000250547 0)
(0.999388 0.000202068 0)
(0.997007 -0.00467781 0)
(0.998152 -0.000241069 0)
(0.996359 0.00304671 0)
(1.00225 0.00699808 0)
(1.00691 0.0045214 0)
(1.00738 -0.00166713 0)
(0.999085 -0.00848949 0)
(0.999137 -0.00600884 0)
(0.992446 -0.012902 0)
(0.993328 -0.000671107 0)
(0.993672 -0.00900057 0)
(0.995859 0.00586185 0)
(1.00101 0.004072 0)
(1.00415 0.0126871 0)
(1.00633 0.0124253 0)
(1.00788 0.013193 0)
(1.00617 0.0144468 0)
(1.00042 -0.00195414 0)
(0.997579 0.000226848 0)
(0.999768 0.000211787 0)
(0.997105 -0.00463578 0)
(0.9964 -0.000208135 0)
(0.99509 0.00294142 0)
(1.00086 0.00684654 0)
(1.0063 0.00444194 0)
(1.00772 -0.00156423 0)
(1.00024 -0.00833044 0)
(0.999909 -0.00585835 0)
(0.993043 -0.012681 0)
(0.99198 -0.000812587 0)
(0.991117 -0.00881543 0)
(0.991967 0.00539938 0)
(0.996424 0.00415312 0)
(0.99964 0.0120584 0)
(1.00214 0.0127106 0)
(1.00432 0.0128891 0)
(1.00338 0.01493 0)
(1.00069 -0.00191854 0)
(0.997768 0.000202347 0)
(0.99983 0.000222141 0)
(0.997389 -0.00457204 0)
(0.995321 -0.00016386 0)
(0.994743 0.00283083 0)
(0.999886 0.00668507 0)
(1.00572 0.00433307 0)
(1.0078 -0.00148633 0)
(1.00093 -0.00816689 0)
(1.00029 -0.00570425 0)
(0.993793 -0.0124009 0)
(0.99109 -0.00090765 0)
(0.989785 -0.00852573 0)
(0.989002 0.00495612 0)
(0.992679 0.00430081 0)
(0.995509 0.0113885 0)
(0.998063 0.0129681 0)
(1.00084 0.0125831 0)
(1.0006 0.0152131 0)
(1.00077 -0.00188326 0)
(0.997931 0.000175449 0)
(0.99978 0.000233174 0)
(0.997665 -0.00449473 0)
(0.994753 -0.00011498 0)
(0.994821 0.00271804 0)
(0.999299 0.00652279 0)
(1.00519 0.00420539 0)
(1.00768 -0.00142645 0)
(1.00123 -0.00799456 0)
(1.00037 -0.00555836 0)
(0.994444 -0.0120743 0)
(0.990559 -0.000982917 0)
(0.989274 -0.00814167 0)
(0.987116 0.0045357 0)
(0.990049 0.00452329 0)
(0.992405 0.0107166 0)
(0.994807 0.0131738 0)
(0.998086 0.0123128 0)
(0.998389 0.0152937 0)
(1.0008 -0.00184675 0)
(0.998016 0.000145463 0)
(0.999703 0.000245186 0)
(0.997868 -0.00440972 0)
(0.994527 -6.4619e-05 0)
(0.995026 0.00260447 0)
(0.998993 0.00636263 0)
(1.00476 0.00406754 0)
(1.00746 -0.00137944 0)
(1.00129 -0.0078086 0)
(1.00027 -0.00542757 0)
(0.994902 -0.0117074 0)
(0.9903 -0.00106195 0)
(0.989212 -0.00768118 0)
(0.986198 0.00413337 0)
(0.9885 0.00480883 0)
(0.990523 0.0100699 0)
(0.992646 0.0133031 0)
(0.996292 0.0121142 0)
(0.996996 0.0151916 0)
(1.00083 -0.00180813 0)
(0.998043 0.000112152 0)
(0.999632 0.000258646 0)
(0.997992 -0.00432083 0)
(0.994512 -1.37666e-05 0)
(0.995224 0.00249069 0)
(0.998866 0.00620347 0)
(1.00441 0.00392667 0)
(1.0072 -0.00134198 0)
(1.00122 -0.00760647 0)
(1.00011 -0.00531188 0)
(0.995184 -0.0113091 0)
(0.990231 -0.00115319 0)
(0.989341 -0.0071704 0)
(0.985989 0.00374702 0)
(0.987792 0.00512832 0)
(0.98968 0.0094683 0)
(0.991489 0.0133436 0)
(0.995352 0.0120047 0)
(0.996345 0.0149387 0)
(1.00086 -0.00176683 0)
(0.998042 7.5079e-05 0)
(0.999576 0.000274393 0)
(0.998056 -0.00423038 0)
(0.99461 3.72702e-05 0)
(0.995379 0.00237728 0)
(0.99884 0.00604291 0)
(1.00414 0.00378612 0)
(1.00693 -0.00131268 0)
(1.0011 -0.00738774 0)
(0.999965 -0.00520969 0)
(0.995354 -0.0108849 0)
(0.990281 -0.00126118 0)
(0.989527 -0.0066221 0)
(0.986204 0.00336338 0)
(0.987626 0.00545131 0)
(0.989536 0.00893478 0)
(0.991054 0.0132902 0)
(0.995001 0.0119772 0)
(0.996215 0.0145781 0)
(1.00089 -0.00172252 0)
(0.998035 3.37568e-05 0)
(0.999529 0.000293175 0)
(0.998083 -0.00413958 0)
(0.994758 8.82643e-05 0)
(0.995498 0.00226483 0)
(0.998862 0.00587872 0)
(1.00393 0.00364796 0)
(1.00668 -0.0012925 0)
(1.00097 -0.0071496 0)
(0.999842 -0.00512266 0)
(0.995471 -0.0104353 0)
(0.990399 -0.00138818 0)
(0.989718 -0.00604774 0)
(0.986631 0.00298303 0)
(0.987751 0.00575219 0)
(0.989768 0.00848145 0)
(0.991043 0.0131414 0)
(0.994971 0.0120151 0)
(0.996373 0.0141633 0)
(1.00091 -0.00167507 0)
(0.998039 -1.22073e-05 0)
(0.999484 0.000315594 0)
(0.998096 -0.00404905 0)
(0.994917 0.000139085 0)
(0.9956 0.00215392 0)
(0.9989 0.00570852 0)
(1.00374 0.00351584 0)
(1.00643 -0.00128408 0)
(1.00084 -0.00688886 0)
(0.999743 -0.00504992 0)
(0.995575 -0.00996701 0)
(0.990553 -0.00152578 0)
(0.989903 -0.00546589 0)
(0.98714 0.00262074 0)
(0.988005 0.00600754 0)
(0.990153 0.00811056 0)
(0.99124 0.0129059 0)
(0.995072 0.01209 0)
(0.996652 0.0137339 0)
(1.00091 -0.00162442 0)
(0.998062 -6.30648e-05 0)
(0.999433 0.000342272 0)
(0.99811 -0.00395919 0)
(0.995068 0.000189752 0)
(0.995701 0.00204501 0)
(0.998939 0.00553058 0)
(1.00358 0.00339159 0)
(1.00619 -0.00128722 0)
(1.00072 -0.00661018 0)
(0.999658 -0.00498415 0)
(0.995686 -0.00948603 0)
(0.990726 -0.00166676 0)
(0.990087 -0.00489322 0)
(0.987671 0.00229074 0)
(0.988306 0.0062017 0)
(0.990571 0.00781903 0)
(0.991522 0.012601 0)
(0.995198 0.01217 0)
(0.996953 0.0133134 0)
(1.00089 -0.00157052 0)
(0.998109 -0.000119 0)
(0.999374 0.000373472 0)
(0.998134 -0.00386961 0)
(0.995206 0.000239262 0)
(0.995811 0.00193992 0)
(0.998972 0.00534309 0)
(1.00341 0.00327563 0)
(1.00594 -0.00130228 0)
(1.00062 -0.00631471 0)
(0.999577 -0.00492552 0)
(0.99581 -0.0089983 0)
(0.990908 -0.00179586 0)
(0.990277 -0.00433752 0)
(0.988199 0.00200251 0)
(0.988623 0.00633579 0)
(0.990969 0.00760167 0)
(0.991835 0.0122455 0)
(0.995308 0.012234 0)
(0.997236 0.0129207 0)
(1.00085 -0.00151341 0)
(0.998178 -0.00018008 0)
(0.999306 0.00040874 0)
(0.99817 -0.00377916 0)
(0.995332 0.000286009 0)
(0.995934 0.00184034 0)
(0.999 0.00514444 0)
(1.00326 0.00317225 0)
(1.00568 -0.00133247 0)
(1.00052 -0.00600214 0)
(0.999494 -0.00487033 0)
(0.99595 -0.00851129 0)
(0.991095 -0.00191417 0)
(0.990477 -0.00380825 0)
(0.988717 0.00176247 0)
(0.988952 0.00641481 0)
(0.991333 0.00744229 0)
(0.992166 0.0118538 0)
(0.995393 0.0122756 0)
(0.997487 0.0125733 0)
(1.00079 -0.00145314 0)
(0.998264 -0.000246496 0)
(0.999232 0.000448663 0)
(0.998217 -0.00368867 0)
(0.995448 0.000330328 0)
(0.996069 0.00174626 0)
(0.999022 0.00493072 0)
(1.0031 0.00308305 0)
(1.00542 -0.00137533 0)
(1.00044 -0.00567869 0)
(0.999406 -0.00480938 0)
(0.996104 -0.00803492 0)
(0.991285 -0.00200796 0)
(0.99069 -0.00331488 0)
(0.989224 0.00156636 0)
(0.989297 0.00644856 0)
(0.991666 0.00732531 0)
(0.992514 0.0114315 0)
(0.995463 0.0122833 0)
(0.997703 0.0122779 0)
(1.00073 -0.00138977 0)
(0.998358 -0.00031809 0)
(0.999156 0.000491966 0)
(0.998274 -0.00359694 0)
(0.995562 0.00036981 0)
(0.996214 0.00166074 0)
(0.999042 0.004701 0)
(1.00295 0.00300614 0)
(1.00515 -0.00142759 0)
(1.00037 -0.00534775 0)
(0.999314 -0.00473725 0)
(0.996272 -0.00757969 0)
(0.99148 -0.00206019 0)
(0.990911 -0.0028566 0)
(0.989724 0.00140665 0)
(0.989661 0.00644504 0)
(0.991971 0.0072474 0)
(0.992882 0.0109858 0)
(0.995532 0.0122422 0)
(0.997885 0.0120306 0)
(1.00066 -0.00132311 0)
(0.998452 -0.000394623 0)
(0.999083 0.000537991 0)
(0.998335 -0.00350157 0)
(0.995677 0.000401574 0)
(0.996366 0.00158667 0)
(0.999063 0.00445793 0)
(1.00281 0.00293981 0)
(1.00487 -0.00148504 0)
(1.00031 -0.0050193 0)
(0.999222 -0.00464234 0)
(0.996452 -0.00715296 0)
(0.991683 -0.00208355 0)
(0.991139 -0.00242269 0)
(0.99022 0.00128878 0)
(0.990046 0.00640326 0)
(0.992255 0.00720505 0)
(0.993267 0.0105297 0)
(0.995613 0.0121451 0)
(0.998033 0.0118296 0)
(1.00059 -0.00125342 0)
(0.998537 -0.000475793 0)
(0.999016 0.000586711 0)
(0.998394 -0.00340158 0)
(0.995799 0.000425289 0)
(0.99652 0.00152456 0)
(0.999086 0.00420089 0)
(1.00266 0.00288343 0)
(1.0046 -0.001545 0)
(1.00026 -0.00470041 0)
(0.999132 -0.00452071 0)
(0.996638 -0.00675888 0)
(0.991902 -0.00207002 0)
(0.99137 -0.00201922 0)
(0.990713 0.00120247 0)
(0.990452 0.00632803 0)
(0.992522 0.00719974 0)
(0.993661 0.010077 0)
(0.995715 0.0119834 0)
(0.998145 0.0116702 0)
(1.00054 -0.00118083 0)
(0.998612 -0.000560495 0)
(0.998956 0.000634526 0)
(0.998449 -0.00329519 0)
(0.995929 0.000438338 0)
(0.996671 0.00147614 0)
(0.999115 0.00393028 0)
(1.00251 0.00283475 0)
(1.00433 -0.00160023 0)
(1.00021 -0.00439735 0)
(0.999049 -0.00437031 0)
(0.996827 -0.00638952 0)
(0.992141 -0.0020336 0)
(0.9916 -0.00163949 0)
(0.991206 0.00114055 0)
(0.990879 0.00622179 0)
(0.992776 0.00722207 0)
(0.994055 0.00963701 0)
(0.995848 0.01175 0)
(0.998223 0.0115436 0)
(1.0005 -0.00110531 0)
(0.998677 -0.000647886 0)
(0.998903 0.000679879 0)
(0.998496 -0.00318025 0)
(0.996067 0.000436906 0)
(0.996818 0.00144309 0)
(0.999151 0.00365002 0)
(1.00236 0.00278542 0)
(1.00406 -0.00164384 0)
(1.00016 -0.00411859 0)
(0.998974 -0.00418292 0)
(0.997014 -0.0060445 0)
(0.992404 -0.00197637 0)
(0.991829 -0.00126127 0)
(0.991698 0.00110926 0)
(0.991327 0.00608437 0)
(0.993022 0.00725759 0)
(0.99444 0.00921823 0)
(0.996017 0.0114376 0)
(0.998273 0.0114405 0)
(1.00047 -0.00102745 0)
(0.998736 -0.000736595 0)
(0.998857 0.000720887 0)
(0.998538 -0.00305449 0)
(0.996214 0.000422174 0)
(0.996959 0.00142339 0)
(0.999194 0.00336327 0)
(1.0022 0.00273492 0)
(1.00381 -0.00167298 0)
(1.00011 -0.00386534 0)
(0.998906 -0.0039643 0)
(0.997194 -0.00571188 0)
(0.992694 -0.00190116 0)
(0.992056 -0.000894601 0)
(0.992186 0.0011056 0)
(0.991796 0.00591692 0)
(0.993264 0.00730186 0)
(0.994808 0.00884294 0)
(0.996228 0.0110451 0)
(0.998307 0.0113441 0)
(1.00045 -0.000947453 0)
(0.998793 -0.000825345 0)
(0.998817 0.000755665 0)
(0.998574 -0.00291801 0)
(0.996366 0.000395391 0)
(0.997092 0.00141345 0)
(0.999243 0.00307455 0)
(1.00204 0.00267763 0)
(1.00356 -0.00167942 0)
(1.00006 -0.00364313 0)
(0.998844 -0.00372054 0)
(0.997366 -0.00538344 0)
(0.993008 -0.00182772 0)
(0.992283 -0.000533494 0)
(0.992665 0.00113625 0)
(0.992289 0.00571763 0)
(0.99351 0.00734117 0)
(0.995147 0.00853211 0)
(0.996481 0.0105859 0)
(0.998343 0.0112151 0)
(1.00043 -0.000866112 0)
(0.998854 -0.000911664 0)
(0.998784 0.000781575 0)
(0.998605 -0.00277023 0)
(0.996522 0.000356239 0)
(0.997219 0.00141046 0)
(0.999297 0.00279031 0)
(1.00188 0.00260492 0)
(1.00331 -0.00166077 0)
(1.00002 -0.00344816 0)
(0.998788 -0.00345476 0)
(0.997526 -0.00506004 0)
(0.993344 -0.00175347 0)
(0.992514 -0.000173761 0)
(0.993129 0.00120678 0)
(0.992802 0.00548725 0)
(0.993766 0.00735247 0)
(0.995455 0.00828873 0)
(0.996766 0.0100923 0)
(0.998403 0.0110099 0)
(1.00041 -0.000784311 0)
(0.99892 -0.00099393 0)
(0.998756 0.000797096 0)
(0.998635 -0.00261036 0)
(0.996681 0.000306194 0)
(0.997338 0.00141332 0)
(0.999356 0.00251321 0)
(1.00172 0.00251292 0)
(1.00307 -0.00161651 0)
(0.999972 -0.00327692 0)
(0.998737 -0.00318032 0)
(0.997676 -0.00472689 0)
(0.9937 -0.00167653 0)
(0.992755 0.000170959 0)
(0.993572 0.00131654 0)
(0.993332 0.00523764 0)
(0.99404 0.00732054 0)
(0.995727 0.00810261 0)
(0.997069 0.00960581 0)
(0.998505 0.0107075 0)
(1.00039 -0.000701454 0)
(0.998991 -0.0010726 0)
(0.998736 0.000801992 0)
(0.998663 -0.00244065 0)
(0.996841 0.000249938 0)
(0.997452 0.00141618 0)
(0.999417 0.00225188 0)
(1.00157 0.00240433 0)
(1.00283 -0.00155228 0)
(0.999934 -0.00312461 0)
(0.998693 -0.00290489 0)
(0.997814 -0.00437406 0)
(0.994071 -0.00160127 0)
(0.993009 0.000492737 0)
(0.993988 0.00146438 0)
(0.99387 0.00498323 0)
(0.994338 0.00723653 0)
(0.99597 0.00795415 0)
(0.997371 0.00915914 0)
(0.998656 0.0103184 0)
(1.00037 -0.000619589 0)
(0.999066 -0.00114385 0)
(0.998724 0.00079476 0)
(0.99869 -0.00226547 0)
(0.997004 0.000193943 0)
(0.99756 0.00141414 0)
(0.999478 0.00200629 0)
(1.00142 0.00227941 0)
(1.00259 -0.00146507 0)
(0.999904 -0.00298673 0)
(0.998656 -0.00262926 0)
(0.997941 -0.00399834 0)
(0.994453 -0.00152217 0)
(0.993279 0.000786011 0)
(0.994377 0.00164602 0)
(0.994409 0.00473637 0)
(0.994662 0.00710099 0)
(0.99619 0.007823 0)
(0.997656 0.00876905 0)
(0.998848 0.0098804 0)
(1.00035 -0.000538628 0)
(0.999145 -0.00120731 0)
(0.99872 0.000777356 0)
(0.998717 -0.00208731 0)
(0.997167 0.000134315 0)
(0.997664 0.00141284 0)
(0.999537 0.00177616 0)
(1.00128 0.00213435 0)
(1.00235 -0.00135302 0)
(0.999883 -0.00285975 0)
(0.998633 -0.00235966 0)
(0.998057 -0.00359789 0)
(0.994844 -0.00142769 0)
(0.993569 0.00103532 0)
(0.994736 0.0018468 0)
(0.99494 0.00450589 0)
(0.995013 0.00692046 0)
(0.996395 0.00769379 0)
(0.997917 0.00843446 0)
(0.999068 0.00943503 0)
(1.00033 -0.000459878 0)
(0.999225 -0.00126139 0)
(0.998724 0.000749946 0)
(0.998744 -0.001908 0)
(0.997333 7.26484e-05 0)
(0.997764 0.00141003 0)
(0.999592 0.00156664 0)
(1.00116 0.00197268 0)
(1.00212 -0.00122258 0)
(0.999868 -0.00273376 0)
(0.998625 -0.00210603 0)
(0.998165 -0.00317549 0)
(0.995237 -0.0013126 0)
(0.993878 0.00123485 0)
(0.995071 0.00205564 0)
(0.995455 0.00429997 0)
(0.995388 0.00669951 0)
(0.996595 0.00755591 0)
(0.99815 0.00814115 0)
(0.999298 0.00901068 0)
(1.0003 -0.000382775 0)
(0.999306 -0.0013077 0)
(0.998736 0.000713379 0)
(0.99877 -0.00173211 0)
(0.9975 1.10812e-05 0)
(0.997863 0.00140607 0)
(0.999642 0.00137691 0)
(1.00105 0.00180092 0)
(1.00189 -0.00107581 0)
(0.999858 -0.00259124 0)
(0.998637 -0.00187463 0)
(0.998266 -0.00273939 0)
(0.995627 -0.00118498 0)
(0.994208 0.00138374 0)
(0.995382 0.0022554 0)
(0.995947 0.00412038 0)
(0.995784 0.00644689 0)
(0.996796 0.00740873 0)
(0.998356 0.00787519 0)
(0.999524 0.00861963 0)
(1.00028 -0.000308576 0)
(0.999388 -0.00134567 0)
(0.998756 0.00067001 0)
(0.998796 -0.00155877 0)
(0.997669 -5.6936e-05 0)
(0.997961 0.00140507 0)
(0.999685 0.00120895 0)
(1.00095 0.00162059 0)
(1.00167 -0.00091014 0)
(0.999852 -0.00242452 0)
(0.998668 -0.00166289 0)
(0.99836 -0.00230982 0)
(0.996007 -0.00103705 0)
(0.994559 0.00148984 0)
(0.995678 0.00243236 0)
(0.996412 0.00396824 0)
(0.996201 0.00617324 0)
(0.997005 0.00725011 0)
(0.998539 0.00762505 0)
(0.999737 0.00825413 0)
(1.00026 -0.000239047 0)
(0.999469 -0.00137073 0)
(0.998785 0.000615941 0)
(0.998821 -0.00138536 0)
(0.997839 -0.000129042 0)
(0.998059 0.00140405 0)
(0.999722 0.00106969 0)
(1.00086 0.00142942 0)
(1.00146 -0.000734997 0)
(0.999846 -0.00222966 0)
(0.998717 -0.00147292 0)
(0.998454 -0.00190629 0)
(0.996375 -0.000860438 0)
(0.994926 0.00156788 0)
(0.99596 0.00258667 0)
(0.996846 0.00384517 0)
(0.996632 0.00588269 0)
(0.997225 0.00707483 0)
(0.998699 0.00739475 0)
(0.999934 0.00790982 0)
(1.00023 -0.000173042 0)
(0.999549 -0.00138702 0)
(0.998824 0.00055385 0)
(0.998845 -0.0012121 0)
(0.998009 -0.000208279 0)
(0.99816 0.00139642 0)
(0.99975 0.000972029 0)
(1.00079 0.00123775 0)
(1.00127 -0.00056011 0)
(0.999839 -0.00199547 0)
(0.998783 -0.0013079 0)
(0.99855 -0.00154177 0)
(0.996729 -0.000676635 0)
(0.995305 0.00161775 0)
(0.996234 0.00271483 0)
(0.997247 0.00375352 0)
(0.997073 0.00558263 0)
(0.997464 0.0068753 0)
(0.99884 0.00718835 0)
(1.00011 0.00758101 0)
(1.00021 -0.000113204 0)
(0.999628 -0.00138888 0)
(0.998872 0.000479331 0)
(0.998868 -0.00103601 0)
(0.998178 -0.000292125 0)
(0.998265 0.00136974 0)
(0.99977 0.000918707 0)
(1.00073 0.00105416 0)
(1.00109 -0.000395682 0)
(0.999829 -0.00172548 0)
(0.998859 -0.00114849 0)
(0.998651 -0.00121769 0)
(0.997068 -0.000479805 0)
(0.995695 0.00165432 0)
(0.996506 0.00281489 0)
(0.997613 0.00369266 0)
(0.997515 0.00528775 0)
(0.997727 0.00664334 0)
(0.998967 0.00700135 0)
(1.00027 0.00726898 0)
(1.00019 -5.97563e-05 0)
(0.999704 -0.00137464 0)
(0.998931 0.000390522 0)
(0.998891 -0.000857428 0)
(0.998344 -0.000375327 0)
(0.998379 0.0013195 0)
(0.999782 0.000907752 0)
(1.00069 0.000889728 0)
(1.00094 -0.000253961 0)
(0.999818 -0.00143704 0)
(0.998941 -0.000981842 0)
(0.99876 -0.000931827 0)
(0.997394 -0.00027738 0)
(0.996089 0.00168772 0)
(0.996778 0.00288965 0)
(0.997945 0.00365516 0)
(0.997949 0.00501352 0)
(0.998019 0.00637736 0)
(0.999088 0.00682094 0)
(1.0004 0.00698786 0)
(1.00017 -1.41495e-05 0)
(0.999776 -0.00134563 0)
(0.999 0.000290535 0)
(0.998914 -0.000677011 0)
(0.998506 -0.000452861 0)
(0.998504 0.00123127 0)
(0.99979 0.000931266 0)
(1.00065 0.000759806 0)
(1.00082 -0.00013653 0)
(0.999808 -0.00114518 0)
(0.999024 -0.000805204 0)
(0.998874 -0.000674868 0)
(0.997707 -8.9121e-05 0)
(0.996487 0.00171544 0)
(0.997055 0.00294505 0)
(0.998246 0.00363304 0)
(0.998366 0.00476855 0)
(0.998336 0.00608701 0)
(0.999215 0.00662702 0)
(1.00051 0.00674418 0)
(1.00015 2.4012e-05 0)
(0.999843 -0.00129963 0)
(0.999079 0.00017763 0)
(0.998938 -0.000503175 0)
(0.998658 -0.000512384 0)
(0.998642 0.00110174 0)
(0.999798 0.000973765 0)
(1.00062 0.00067597 0)
(1.00072 -3.52988e-05 0)
(0.999804 -0.000859154 0)
(0.999106 -0.000610934 0)
(0.998992 -0.000437921 0)
(0.998008 8.67441e-05 0)
(0.996887 0.00173321 0)
(0.997338 0.0029754 0)
(0.998521 0.00361858 0)
(0.998759 0.00455472 0)
(0.998674 0.0057918 0)
(0.999361 0.00641025 0)
(1.00059 0.00653027 0)
(1.00014 5.28024e-05 0)
(0.999904 -0.00123429 0)
(0.999168 5.73752e-05 0)
(0.998965 -0.00033712 0)
(0.998799 -0.000547629 0)
(0.998794 0.000939564 0)
(0.999813 0.00101899 0)
(1.0006 0.00064957 0)
(1.00065 5.43714e-05 0)
(0.999807 -0.000592517 0)
(0.999187 -0.000403055 0)
(0.99911 -0.000218702 0)
(0.998296 0.00025437 0)
(0.997287 0.00174365 0)
(0.997632 0.00297782 0)
(0.998776 0.00361008 0)
(0.999124 0.00437441 0)
(0.999024 0.00550453 0)
(0.999531 0.00617164 0)
(1.00067 0.00632495 0)
(1.00012 7.2982e-05 0)
(0.999958 -0.00115054 0)
(0.999264 -6.8439e-05 0)
(0.998996 -0.000187316 0)
(0.998925 -0.000533965 0)
(0.998958 0.000753186 0)
(0.999842 0.00105118 0)
(1.00057 0.000674446 0)
(1.00059 0.000121514 0)
(0.999822 -0.000361656 0)
(0.999267 -0.000196667 0)
(0.999228 -2.05144e-06 0)
(0.998571 0.000418601 0)
(0.99768 0.00175079 0)
(0.997937 0.00295168 0)
(0.999019 0.00359353 0)
(0.999461 0.00422061 0)
(0.999377 0.00522746 0)
(0.999726 0.00592052 0)
(1.00074 0.00611934 0)
(1.00011 8.42768e-05 0)
(1 -0.00105161 0)
(0.999367 -0.000193342 0)
(0.999037 -6.13839e-05 0)
(0.999034 -0.000464023 0)
(0.999128 0.000577695 0)
(0.99989 0.00106188 0)
(1.00055 0.000724964 0)
(1.00055 0.000171277 0)
(0.999852 -0.000181938 0)
(0.999351 4.34377e-06 0)
(0.999346 0.000218261 0)
(0.998831 0.000582931 0)
(0.998064 0.00176139 0)
(0.998252 0.00290681 0)
(0.999256 0.00356157 0)
(0.999769 0.00408708 0)
(0.999728 0.00496383 0)
(0.999946 0.00566063 0)
(1.00082 0.00590893 0)
(1.0001 8.61908e-05 0)
(1.00004 -0.000938384 0)
(0.999474 -0.000311579 0)
(0.999089 4.33587e-05 0)
(0.999126 -0.000341205 0)
(0.9993 0.000438104 0)
(0.999957 0.00102907 0)
(1.00053 0.000779326 0)
(1.00052 0.000225476 0)
(0.9999 -3.53745e-05 0)
(0.999448 0.00018957 0)
(0.999466 0.000430063 0)
(0.999075 0.000751881 0)
(0.998435 0.00177869 0)
(0.998574 0.00284503 0)
(0.99949 0.00350891 0)
(1.00005 0.00396618 0)
(1.00007 0.00472016 0)
(1.00019 0.00539611 0)
(1.00091 0.00569083 0)
(1.00008 8.05918e-05 0)
(1.00007 -0.000816603 0)
(0.999582 -0.000412634 0)
(0.999157 0.000112299 0)
(0.999204 -0.000183223 0)
(0.999463 0.000339101 0)
(1.00004 0.00094787 0)
(1.00052 0.000829093 0)
(1.00049 0.00030577 0)
(0.999961 9.03877e-05 0)
(0.999558 0.000334557 0)
(0.999592 0.00061899 0)
(0.999304 0.000921346 0)
(0.998787 0.00181072 0)
(0.998898 0.00277589 0)
(0.999728 0.00343778 0)
(1.00031 0.00385263 0)
(1.00039 0.00449857 0)
(1.00044 0.00513501 0)
(1.00102 0.00546279 0)
(1.00008 6.85723e-05 0)
(1.00008 -0.000691172 0)
(0.999688 -0.000491074 0)
(0.999241 0.000140325 0)
(0.999272 -7.90253e-06 0)
(0.999609 0.000287794 0)
(1.00014 0.000838233 0)
(1.00053 0.000867092 0)
(1.00047 0.000414785 0)
(1.00003 0.000204376 0)
(0.999681 0.000448911 0)
(0.99973 0.000779933 0)
(0.999525 0.00107807 0)
(0.999117 0.00185959 0)
(0.999217 0.00271595 0)
(0.999968 0.0033542 0)
(1.00056 0.00374168 0)
(1.0007 0.00429341 0)
(1.00071 0.00488222 0)
(1.00116 0.00522782 0)
(1.00007 5.18339e-05 0)
(1.00009 -0.000566752 0)
(0.999786 -0.000542073 0)
(0.999343 0.000131517 0)
(0.999336 0.000170341 0)
(0.999733 0.000292759 0)
(1.00025 0.000721355 0)
(1.00056 0.000872625 0)
(1.00046 0.000536387 0)
(1.00009 0.000335 0)
(0.999812 0.000551724 0)
(0.999878 0.000908332 0)
(0.99974 0.00121239 0)
(0.999429 0.00190869 0)
(0.999525 0.00266743 0)
(1.00021 0.00326533 0)
(1.00079 0.00363215 0)
(1.00099 0.00410386 0)
(1.00098 0.00463973 0)
(1.00131 0.00499824 0)
(1.00006 3.32056e-05 0)
(1.00009 -0.000449472 0)
(0.999874 -0.000561057 0)
(0.99946 9.34641e-05 0)
(0.999403 0.000324199 0)
(0.999833 0.000346467 0)
(1.00035 0.000622646 0)
(1.00061 0.000843526 0)
(1.00046 0.000654634 0)
(1.00016 0.000486781 0)
(0.999945 0.000651636 0)
(1.00004 0.00100805 0)
(0.999953 0.00132405 0)
(0.999725 0.00195201 0)
(0.999821 0.00262913 0)
(1.00045 0.00318391 0)
(1.00102 0.00352896 0)
(1.00126 0.00393338 0)
(1.00125 0.00440411 0)
(1.00147 0.00477636 0)
(1.00006 1.48731e-05 0)
(1.00008 -0.000343077 0)
(0.999949 -0.000545901 0)
(0.999589 3.45234e-05 0)
(0.999478 0.0004455 0)
(0.99991 0.000435237 0)
(1.00045 0.000556447 0)
(1.00069 0.000789069 0)
(1.00048 0.000752337 0)
(1.00022 0.000651145 0)
(1.00007 0.000758614 0)
(1.0002 0.00109119 0)
(1.00016 0.00140769 0)
(1.00001 0.00198727 0)
(1.00011 0.00259209 0)
(1.00068 0.00310354 0)
(1.00123 0.00342654 0)
(1.00151 0.00377952 0)
(1.00152 0.00417657 0)
(1.00164 0.00455529 0)
(1.00005 -1.12815e-06 0)
(1.00007 -0.000251931 0)
(1.00001 -0.000495351 0)
(0.999723 -3.42848e-05 0)
(0.999565 0.000521286 0)
(0.99997 0.000544541 0)
(1.00053 0.00053615 0)
(1.00077 0.000723974 0)
(1.00053 0.000807717 0)
(1.00028 0.000806227 0)
(1.00019 0.000881692 0)
(1.00036 0.00117089 0)
(1.00037 0.00146692 0)
(1.00028 0.0020092 0)
(1.00038 0.00255587 0)
(1.00091 0.00302031 0)
(1.00144 0.0033203 0)
(1.00174 0.00363883 0)
(1.00178 0.00396496 0)
(1.00184 0.00432535 0)
(1.00005 -1.28965e-05 0)
(1.00006 -0.000178245 0)
(1.00005 -0.000415057 0)
(0.999857 -9.57516e-05 0)
(0.999668 0.00054686 0)
(1.00002 0.000654093 0)
(1.00059 0.000561388 0)
(1.00086 0.000672058 0)
(1.0006 0.00082419 0)
(1.00035 0.000937319 0)
(1.00029 0.00101419 0)
(1.0005 0.00125474 0)
(1.00058 0.0015138 0)
(1.00054 0.00200826 0)
(1.00064 0.00251616 0)
(1.00113 0.00294144 0)
(1.00164 0.00321186 0)
(1.00195 0.00350753 0)
(1.00201 0.00377937 0)
(1.00204 0.00409122 0)
(1.00004 -1.812e-05 0)
(1.00005 -0.000122642 0)
(1.00008 -0.000312497 0)
(0.999982 -0.000133338 0)
(0.999786 0.00053003 0)
(1.00007 0.000747477 0)
(1.00062 0.00061943 0)
(1.00094 0.000642826 0)
(1.0007 0.000817543 0)
(1.00044 0.00103574 0)
(1.00039 0.00113948 0)
(1.00064 0.00134717 0)
(1.00077 0.0015633 0)
(1.0008 0.00199308 0)
(1.0009 0.00246062 0)
(1.00134 0.0028652 0)
(1.00183 0.00310258 0)
(1.00215 0.0033729 0)
(1.00223 0.00361664 0)
(1.00225 0.00386638 0)
(1.00004 -1.74902e-05 0)
(1.00004 -8.07631e-05 0)
(1.0001 -0.000202901 0)
(1.00009 -0.000136688 0)
(0.999914 0.000484198 0)
(1.00013 0.000811366 0)
(1.00064 0.000699958 0)
(1.00101 0.000647737 0)
(1.0008 0.000800793 0)
(1.00055 0.00109283 0)
(1.00049 0.00124647 0)
(1.00076 0.00143956 0)
(1.00093 0.00161726 0)
(1.00103 0.00198393 0)
(1.00115 0.00239112 0)
(1.00154 0.00278098 0)
(1.00201 0.00299932 0)
(1.00234 0.00323221 0)
(1.00242 0.0034658 0)
(1.00244 0.00366769 0)
(1.00004 -1.15953e-05 0)
(1.00004 -4.9035e-05 0)
(1.00011 -9.72689e-05 0)
(1.00019 -0.000105254 0)
(1.00005 0.000429429 0)
(1.0002 0.000837023 0)
(1.00065 0.000785512 0)
(1.00106 0.000690886 0)
(1.00091 0.000792398 0)
(1.00068 0.00111519 0)
(1.0006 0.00132693 0)
(1.00087 0.0015222 0)
(1.00108 0.0016681 0)
(1.00123 0.00198169 0)
(1.00138 0.00232446 0)
(1.00174 0.00268261 0)
(1.00217 0.00289978 0)
(1.00252 0.00309398 0)
(1.0026 0.0033116 0)
(1.00261 0.00349799 0)
(1.00003 -1.50199e-06 0)
(1.00004 -2.38778e-05 0)
(1.00011 -7.22669e-07 0)
(1.00026 -4.82223e-05 0)
(1.00018 0.000381759 0)
(1.00028 0.000828751 0)
(1.00066 0.000862176 0)
(1.0011 0.000758288 0)
(1.00101 0.000803844 0)
(1.00082 0.0011208 0)
(1.00072 0.00137346 0)
(1.00097 0.0015934 0)
(1.00122 0.00171834 0)
(1.00142 0.00197996 0)
(1.00159 0.00227048 0)
(1.00193 0.00258128 0)
(1.00233 0.002792 0)
(1.00268 0.00296384 0)
(1.00278 0.00314543 0)
(1.00275 0.00333947 0)
(1.00003 1.05139e-05 0)
(1.00005 -1.20186e-06 0)
(1.00012 8.23668e-05 0)
(1.00032 2.75385e-05 0)
(1.0003 0.00035254 0)
(1.00038 0.000801399 0)
(1.00068 0.000920966 0)
(1.00112 0.000838356 0)
(1.0011 0.000838199 0)
(1.00095 0.00112516 0)
(1.00085 0.00138822 0)
(1.00108 0.00163872 0)
(1.00133 0.00176371 0)
(1.00158 0.00197872 0)
(1.00177 0.00221956 0)
(1.00211 0.00249041 0)
(1.00248 0.00267674 0)
(1.00282 0.00284106 0)
(1.00295 0.00297954 0)
(1.00289 0.00317576 0)
(1.00002 2.34029e-05 0)
(1.00006 1.9981e-05 0)
(1.00013 0.000148991 0)
(1.00037 0.000115224 0)
(1.0004 0.000349477 0)
(1.00048 0.000765219 0)
(1.00071 0.000954937 0)
(1.00113 0.000920499 0)
(1.00117 0.000893158 0)
(1.00109 0.00113599 0)
(1.00099 0.00139092 0)
(1.0012 0.00165275 0)
(1.00144 0.00179199 0)
(1.00171 0.00198184 0)
(1.00194 0.0021693 0)
(1.00227 0.00240644 0)
(1.00262 0.00256413 0)
(1.00295 0.00271725 0)
(1.0031 0.00282384 0)
(1.00303 0.00299958 0)
(1.00002 3.58416e-05 0)
(1.00007 4.36544e-05 0)
(1.00014 0.000199635 0)
(1.0004 0.000200743 0)
(1.0005 0.00037202 0)
(1.00059 0.000732993 0)
(1.00076 0.000966579 0)
(1.00114 0.000991423 0)
(1.00122 0.000962596 0)
(1.0012 0.00115635 0)
(1.00113 0.0013919 0)
(1.00132 0.00165044 0)
(1.00155 0.0017951 0)
(1.00183 0.00197951 0)
(1.00208 0.00212784 0)
(1.00241 0.00232398 0)
(1.00275 0.00245906 0)