/*--------------------------------*- C++ -*----------------------------------*\
| =========                 |                                                 |
| \\      /  F ield         | OpenFOAM: The Open Source CFD Toolbox           |
|  \\    /   O peration     | Version:  3.0.1                                 |
|   \\  /    A nd           | Web:      www.OpenFOAM.org                      |
|    \\/     M anipulation  |                                                 |
\*---------------------------------------------------------------------------*/
FoamFile
{
    version     2.0;
    format      ascii;
    class       volScalarField;
    location    "1.8";
    object      p;
}
// * * * * * * * * * * * * * * * * * * * * * * * * * * * * * * * * * * * * * //

dimensions      [0 2 -2 0 0 0 0];

internalField   nonuniform List<scalar> 
9600
(
5.12955e-09
0.000633756
0.00150494
0.0010219
-0.000909254
0.00166319
0.00192142
0.000982067
0.00113015
0.00187856
0.00154016
0.00184727
0.00234639
0.00244347
0.0022787
0.00281689
0.00249337
0.00394804
0.00470698
0.00673719
1.3222e-05
0.000635082
0.0014991
0.00101438
-0.00088769
0.00165232
0.00191202
0.000985154
0.00112701
0.00187595
0.00154739
0.00184238
0.00235375
0.002426
0.00228965
0.00277384
0.00251199
0.00391636
0.00472489
0.00648168
2.61861e-05
0.00063572
0.00148963
0.00100692
-0.00086654
0.00163869
0.00190404
0.000992854
0.00112017
0.00187582
0.00155547
0.00182989
0.00235892
0.00240235
0.00230474
0.00272976
0.00254096
0.00387173
0.0047288
0.00616347
3.98189e-05
0.000636043
0.00147908
0.000999259
-0.000844324
0.00162538
0.00189925
0.0010023
0.00110883
0.00187705
0.00156295
0.00181057
0.00236269
0.00237513
0.00232262
0.00268691
0.002567
0.00382509
0.00470749
0.0058653
5.45687e-05
0.000635961
0.00146723
0.0009921
-0.000817518
0.0016111
0.00189498
0.00101229
0.00109327
0.00187902
0.00157063
0.00178681
0.00236754
0.00234495
0.00234392
0.00264187
0.00259007
0.00377805
0.00466273
0.00559569
7.04988e-05
0.000635084
0.00145455
0.00098651
-0.000785591
0.00159435
0.00189058
0.00102293
0.00107545
0.00188161
0.00157886
0.00176057
0.00237355
0.00231334
0.00236677
0.00259498
0.00261181
0.00372867
0.00459816
0.00535123
8.75051e-05
0.000633382
0.00144195
0.000982697
-0.000749237
0.00157525
0.00188652
0.00103442
0.00105744
0.00188441
0.00158791
0.00173281
0.00238031
0.00228096
0.0023889
0.00254878
0.00262864
0.00367787
0.00451641
0.00512326
0.00010544
0.000631055
0.00142992
0.000980243
-0.000709328
0.00155458
0.00188294
0.00104684
0.00104036
0.00188704
0.00159795
0.00170384
0.00238752
0.00224775
0.00240965
0.00250447
0.00263686
0.00362889
0.0044169
0.00490444
0.000124182
0.000628311
0.00141845
0.00097857
-0.000666664
0.00153293
0.00187972
0.00106011
0.0010246
0.00188921
0.00160896
0.00167377
0.0023947
0.00221404
0.0024287
0.00246244
0.00263501
0.00358332
0.00429792
0.00469019
0.000143658
0.000625308
0.00140735
0.000977189
-0.00062185
0.00151067
0.00187666
0.001074
0.00101012
0.00189066
0.00162079
0.00164265
0.00240144
0.00218065
0.00244496
0.00242373
0.00262232
0.00354085
0.00416038
0.00447732
0.000163838
0.000622145
0.00139639
0.000975778
-0.000575265
0.00148803
0.00187352
0.00108826
0.000996753
0.00189122
0.00163328
0.00161056
0.00240745
0.00214841
0.00245703
0.00238963
0.00259759
0.00350057
0.00400777
0.00426228
0.00018472
0.000618875
0.00138542
0.00097417
-0.000527137
0.00146513
0.00187012
0.0011027
0.000984345
0.00189077
0.00164623
0.00157766
0.00241242
0.00211806
0.00246355
0.00236109
0.00255979
0.00346106
0.00384481
0.00404143
0.000206317
0.000615517
0.0013744
0.00097231
-0.000477603
0.00144207
0.00186633
0.00111719
0.000972753
0.00188927
0.00165946
0.00154423
0.00241589
0.00209043
0.00246324
0.00233852
0.00250886
0.00341965
0.00367673
0.0038124
0.000228647
0.000612077
0.00136333
0.000970186
-0.000426771
0.00141895
0.00186202
0.00113164
0.000961846
0.00188678
0.00167273
0.00151057
0.00241724
0.00206631
0.00245502
0.00232173
0.00244579
0.00337253
0.0035089
0.00357481
0.000251725
0.000608557
0.00135224
0.000967806
-0.000374747
0.0013959
0.00185709
0.00114605
0.000951475
0.0018834
0.00168583
0.00147702
0.00241584
0.00204638
0.00243809
0.00230974
0.00237261
0.00331574
0.00334598
0.00332984
0.000275567
0.000604961
0.00134115
0.0009652
-0.000321646
0.00137306
0.0018514
0.00116044
0.000941461
0.00187928
0.00169853
0.00144394
0.0024111
0.00203107
0.00241211
0.00230078
0.00229203
0.00324594
0.00319101
0.0030797
0.000300186
0.000601299
0.00133009
0.000962406
-0.000267607
0.00135061
0.00184482
0.0011749
0.000931586
0.00187456
0.00171062
0.00141169
0.00240247
0.00202041
0.00237742
0.00229265
0.00220668
0.00316065
0.00304528
0.0028275
0.000325592
0.000597587
0.00131905
0.000959466
-0.000212803
0.0013288
0.00183718
0.00118957
0.000921639
0.00186935
0.00172199
0.00138042
0.00238953
0.00201415
0.00233487
0.00228298
0.00211854
0.00305874
0.00290904
0.00257691
0.000351793
0.000593846
0.00130802
0.000956458
-0.000157439
0.00130788
0.00182826
0.00120459
0.000911461
0.00186373
0.00173258
0.00135017
0.00237213
0.00201156
0.00228571
0.00226975
0.00202894
0.00294054
0.00278171
0.002332
0.000378792
0.000590114
0.00129697
0.0009535
-0.000101758
0.00128815
0.00181782
0.00122012
0.000900943
0.00185765
0.00174251
0.00132077
0.00235034
0.00201157
0.00223102
0.00225149
0.0019388
0.00280679
0.002662
0.00209743
0.000406584
0.000586444
0.00128584
0.00095074
-4.60314e-05
0.00126996
0.00180564
0.00123625
0.000889991
0.00185093
0.00175211
0.00129171
0.00232455
0.00201337
0.0021711
0.0022271
0.00184923
0.00265817
0.00254792
0.00187812
0.000435164
0.000582903
0.00127456
0.000948357
9.44224e-06
0.00125363
0.00179157
0.00125306
0.000878575
0.00184328
0.00176188
0.00126237
0.00229508
0.00201667
0.00210599
0.00219588
0.00176172
0.00249541
0.00243676
0.00167867
0.000464534
0.000579588
0.00126302
0.00094655
6.4335e-05
0.00123949
0.00177546
0.00127059
0.000866765
0.00183412
0.00177261
0.00123218
0.0022616
0.00202128
0.00203566
0.00215703
0.00167791
0.0023197
0.002325
0.00150295
0.000494615
0.000576637
0.00125107
0.00094555
0.000118346
0.00122778
0.00175727
0.00128872
0.000854894
0.00182271
0.00178521
0.00120088
0.00222347
0.00202725
0.00196001
0.00210908
0.00159972
0.00213326
0.00220856
0.00135369
0.000525369
0.000574216
0.00123854
0.000945591
0.000171187
0.00121875
0.00173698
0.00130719
0.000843599
0.00180812
0.00180023
0.00116865
0.00218021
0.0020347
0.00187908
0.00204978
0.00152905
0.0019398
0.00208306
0.00123192
0.000556733
0.000572514
0.00122524
0.000946929
0.000222613
0.00121255
0.00171467
0.00132565
0.000833585
0.00178918
0.0018178
0.00113615
0.00213084
0.00204398
0.00179373
0.00197648
0.0014673
0.00174452
0.00194373
0.00113637
0.000588636
0.000571768
0.00121087
0.000949801
0.000272487
0.00120918
0.00169068
0.00134355
0.000825806
0.00176502
0.0018377
0.00110468
0.00207337
0.00205484
0.00170585
0.0018869
0.0014144
0.00155411
0.00178615
0.00106208
0.000620969
0.000572253
0.00119517
0.000954347
0.000320676
0.00120864
0.00166565
0.00135991
0.000821417
0.00173537
0.00185903
0.00107577
0.00200595
0.00206563
0.00161822
0.00177956
0.00136792
0.00137658
0.00160841
0.000999049
0.000653577
0.000574314
0.0011779
0.000960664
0.000367156
0.0012107
0.00164037
0.00137372
0.000820946
0.00170024
0.00188032
0.0010511
0.00192788
0.00207394
0.0015342
0.00165444
0.00132315
0.00121971
0.00141364
0.000932943
0.000686299
0.000578375
0.00115884
0.000968738
0.000412137
0.00121483
0.00161584
0.00138414
0.000824477
0.00166013
0.00189961
0.00103188
0.00183925
0.00207683
0.0014573
0.00151345
0.00127433
0.00108894
0.00121081
0.000848439
0.000718919
0.000584854
0.00113786
0.000978416
0.000455954
0.00122035
0.00159328
0.00139061
0.000831896
0.00161607
0.00191486
0.00101855
0.00174066
0.00207109
0.00139042
0.00136018
0.00121545
0.000985449
0.00101273
0.000735646
0.000751198
0.000594135
0.00111492
0.000989475
0.00049913
0.00122626
0.00157368
0.00139309
0.000842148
0.00156913
0.00192442
0.00101106
0.00163336
0.00205383
0.00133547
0.00119953
0.00114123
0.000904992
0.000831767
0.00059615
0.000782927
0.000606627
0.00109007
0.00100139
0.000542441
0.00123156
0.00155773
0.00139226
0.00085316
0.0015202
0.00192714
0.00100863
0.00151909
0.00202291
0.00129354
0.00103705
0.0010483
0.000839937
0.000676279
0.000441923
0.00081383
0.000622721
0.0010636
0.00101331
0.000586805
0.00123548
0.00154568
0.00138934
0.000862813
0.00146947
0.00192217
0.00101033
0.00139949
0.00197681
0.0012653
0.000878427
0.000935519
0.000782412
0.000548273
0.00028778
0.000843636
0.000642677
0.00103607
0.0010243
0.000633001
0.00123763
0.00153716
0.00138572
0.00087078
0.00141657
0.00190854
0.00101546
0.00127665
0.00191449
0.00125068
0.000729402
0.000802814
0.000725472
0.000445231
0.000144402
0.000872109
0.000666694
0.00100836
0.00103315
0.000681356
0.00123806
0.0015312
0.00138281
0.000874712
0.00136076
0.00188499
0.00102325
0.00115365
0.0018357
0.00124777
0.000596036
0.000651038
0.000662843
0.000364526
1.69952e-05
0.000899062
0.000694942
0.00098157
0.00103865
0.000731706
0.00123722
0.00152643
0.00138195
0.000875477
0.00130102
0.0018514
0.00103368
0.00103373
0.00173985
0.00125194
0.000484297
0.000483212
0.000587502
0.000304256
-9.11966e-05
0.000924396
0.000727339
0.000956963
0.00103992
0.00078335
0.00123577
0.00152127
0.00138355
0.000873403
0.00123637
0.00180925
0.0010481
0.00091982
0.00162566
0.0012565
0.000399248
0.000306266
0.000491758
0.000260712
-0.000175658
0.000948035
0.000763618
0.000935957
0.00103633
0.000835178
0.00123448
0.00151407
0.00138717
0.000870168
0.00116652
0.00175876
0.00106736
0.000815195
0.00149331
0.00125356
0.000343267
0.000130783
0.000370027
0.000225096
-0.000231512
0.000969954
0.000803403
0.000919984
0.0010276
0.000885843
0.00123398
0.00150327
0.00139215
0.000867558
0.00109218
0.00169932
0.0010908
0.000724074
0.00134577
0.00123514
0.000313738
-3.19675e-05
0.000222571
0.000184523
-0.000258449
0.00099025
0.000846123
0.000910258
0.00101403
0.000933932
0.00123453
0.0014874
0.00139725
0.000867483
0.00101544
0.00162946
0.00111557
0.000650751
0.00118833
0.00119529
0.000303947
-0.000172722
5.61053e-05
0.00012714
-0.000263518
0.00100905
0.000891054
0.00090791
0.000996358
0.000977928
0.00123668
0.00146499
0.00139986
0.000872069
0.000939677
0.00154836
0.00113814
0.000597517
0.0010273
0.00113137
0.000305806
-0.000286324
-0.000119628
4.6419e-05
-0.000258254
0.00102661
0.000937322
0.000913855
0.000975856
0.00101611
0.00124116
0.00143516
0.00139592
0.000882426
0.000869787
0.00145722
0.00115366
0.000563828
0.000870078
0.00104395
0.000310786
-0.000371217
-0.000294919
-5.90106e-05
-0.000254717
0.00104324
0.000984065
0.000928628
0.000954365
0.00104664
0.0012485
0.00139811
0.00138072
0.000898209
0.000810514
0.00135858
0.00115634
0.00054612
0.000724109
0.000936752
0.000311456
-0.000428063
-0.000460795
-0.00018749
-0.000263708
0.00105938
0.00103018
0.000952532
0.000933451
0.00106758
0.00125878
0.00135552
0.00135142
0.000917382
0.000767446
0.00125587
0.00114269
0.000539901
0.000594428
0.000815228
0.000302026
-0.000459753
-0.000608701
-0.000334263
-0.000293778
0.00107568
0.00107448
0.000985213
0.000914478
0.00107665
0.00127121
0.00131185
0.00130914
0.000935043
0.000739753
0.00115462
0.00111283
0.000538414
0.000481891
0.00068565
0.000278967
-0.00047146
-0.000731239
-0.000490862
-0.000349891
0.00109269
0.00111608
0.00102508
0.000899156
0.00107177
0.00128237
0.00127698
0.001259
0.000944339
0.000724336
0.00106027
0.00106894
0.000535186
0.000385461
0.000553464
0.000240955
-0.000470248
-0.000824456
-0.000646509
-0.000431307
0.00111104
0.00115414
0.00107
0.000889596
0.00105247
0.00128945
0.00125507
0.00120584
0.000940335
0.00071559
0.000976221
0.00101413
0.000527196
0.000303322
0.000422761
0.000188121
-0.000463382
-0.000888152
-0.00079095
-0.000532204
0.0011315
0.00118804
0.00111728
0.000888138
0.0010214
0.0012876
0.00124547
0.0011561
0.000922742
0.000706719
0.000902803
0.000954612
0.000514567
0.00023277
0.000296419
0.000121525
-0.000457177
-0.000924561
-0.000915815
-0.0006448
0.00115463
0.00121755
0.00116394
0.000896745
0.000982397
0.00127212
0.00124552
0.00111597
0.000893733
0.000691416
0.000838196
0.000895718
0.000498816
0.000172177
0.000176251
4.29616e-05
-0.000457614
-0.000938585
-0.00101474
-0.000760894
0.0011808
0.0012428
0.00120715
0.000916096
0.000939895
0.00124013
0.00124994
0.00108939
0.0008584
0.000666719
0.000778573
0.000838343
0.000482699
0.000122185
6.42098e-05
-4.47153e-05
-0.000469583
-0.000938183
-0.00108438
-0.000871226
0.00121005
0.00126446
0.00124455
0.000945694
0.000899357
0.00119121
0.00125085
0.00107708
0.000824913
0.000633847
0.000718173
0.000781077
0.000467276
8.37812e-05
-3.68673e-05
-0.000137857
-0.000494964
-0.000932681
-0.00112612
-0.000966275
0.00124212
0.00128351
0.0012745
0.000983239
0.00086598
0.00112691
0.00124021
0.00107737
0.000800388
0.000594885
0.000653515
0.000722144
0.000451263
5.79354e-05
-0.000123506
-0.000232259
-0.000532622
-0.000929863
-0.00114615
-0.00103935
0.00127648
0.00130118
0.00129612
0.00102477
0.00084381
0.00105181
0.00121262
0.00108508
0.000788977
0.000555522
0.000584252
0.000658076
0.000432718
4.3287e-05
-0.000192328
-0.000322705
-0.000579895
-0.00093364
-0.00115278
-0.00108815
0.00131231
0.00131864
0.00130925
0.00106638
0.000835408
0.000973389
0.00116577
0.0010909
0.000790702
0.000524217
0.000512962
0.000585804
0.000408399
3.6032e-05
-0.000241744
-0.000403277
-0.000633015
-0.000945008
-0.00115398
-0.00111544
0.00134845
0.00133677
0.00131474
0.00110303
0.00084139
0.000900931
0.00110097
0.00108533
0.000803053
0.000506299
0.000444953
0.000506249
0.000374059
3.2196e-05
-0.00027329
-0.000468504
-0.000685758
-0.000962708
-0.00115545
-0.001128
0.00138369
0.0013561
0.00131473
0.00113161
0.000860224
0.000841408
0.001022
0.00106213
0.000820292
0.000502974
0.000387332
0.000423867
0.000326888
2.60364e-05
-0.000291348
-0.000516546
-0.000731777
-0.000982617
-0.00115854
-0.00113246
0.00141698
0.0013766
0.00131184
0.00115042
0.000885135
0.000797884
0.00093713
0.00101921
0.000833276
0.000513077
0.000345228
0.000344323
0.000269361
1.19674e-05
-0.000300789
-0.000549398
-0.000768145
-0.001
-0.00116103
-0.00113216
0.00144742
0.00139784
0.00130856
0.00115936
0.000910117
0.000770371
0.000856033
0.000958848
0.000832954
0.000532847
0.000321583
0.000274024
0.000206559
-1.18856e-05
-0.000307292
-0.000569268
-0.000794053
-0.00101206
-0.0011599
-0.00112713
0.0014745
0.00141906
0.00130678
0.00115928
0.000929849
0.000757376
0.000785478
0.000885875
0.000815231
0.00055381
0.000315767
0.000219194
0.000143272
-4.39824e-05
-0.000315486
-0.000579211
-0.000808925
-0.00101786
-0.00115412
-0.00111658
0.00149797
0.00143917
0.00130711
0.00115237
0.000941421
0.000754212
0.000728871
0.000808049
0.000780922
0.000567286
0.000323186
0.000184433
8.697e-05
-8.0425e-05
-0.000327303
-0.000583933
-0.000813424
-0.00101621
-0.00114362
-0.00110038
0.00151779
0.00145707
0.00130927
0.00114154
0.000943915
0.000754433
0.000686494
0.000733609
0.000732832
0.000568944
0.000336735
0.000167927
4.49875e-05
-0.000115833
-0.000341389
-0.000586807
-0.000810512
-0.0010057
-0.00112706
-0.00107874
0.00153402
0.0014718
0.00131253
0.00112919
0.000937833
0.00075274
0.000656059
0.000668602
0.00067599
0.000557529
0.000350446
0.000165461
1.97089e-05
-0.000143452
-0.000353477
-0.000587259
-0.000803499
-0.000987337
-0.00110227
-0.00105126
0.00154673
0.0014826
0.00131562
0.00111693
0.000924554
0.000746152
0.000633636
0.00061496
0.000617739
0.000534192
0.000359828
0.000173444
9.96757e-06
-0.000158931
-0.000359094
-0.00058143
-0.000791582
-0.000963389
-0.00106811
-0.00101541
0.00155588
0.00148919
0.00131699
0.00110524
0.000906119
0.000733152
0.000614344
0.000571305
0.000564362
0.000503408
0.000361648
0.00018745
1.47336e-05
-0.000160791
-0.000354877
-0.000565955
-0.000770097
-0.000933099
-0.00102521
-0.000969619
0.00156148
0.00149145
0.00131516
0.00109341
0.000884781
0.000713657
0.000593937
0.00053495
0.000517906
0.000470943
0.000357293
0.000202798
3.24122e-05
-0.000147121
-0.000338179
-0.000538876
-0.000735413
-0.000892694
-0.000974031
-0.000913281
0.00156313
0.00148946
0.00130931
0.00107987
0.000861679
0.000688786
0.000570195
0.000502854
0.000477007
0.000439657
0.000350735
0.000218336
5.97302e-05
-0.000116429
-0.000305287
-0.000498046
-0.000685727
-0.000838012
-0.000911876
-0.000844788
0.0015605
0.00148326
0.00129924
0.00106338
0.000836309
0.000659016
0.000541677
0.000472124
0.000440685
0.00040986
0.000343973
0.000236172
9.44136e-05
-6.98597e-05
-0.000251839
-0.000438497
-0.000617798
-0.000764278
-0.0008331
-0.00076072
0.00155337
0.00147268
0.00128443
0.0010429
0.000808247
0.000624881
0.000506878
0.000439062
0.000407432
0.000382752
0.000337277
0.000257123
0.000137401
-8.63446e-06
-0.000175139
-0.000352522
-0.000524004
-0.000664387
-0.000729801
-0.000654948
0.00154129
0.00145759
0.00126478
0.00101748
0.000776078
0.000586237
0.000465693
0.000400336
0.00037297
0.000357885
0.000331397
0.00027961
0.000189727
6.90062e-05
-7.33603e-05
-0.000231889
-0.000391775
-0.000525389
-0.000589447
-0.000516676
0.00152382
0.00143741
0.00124059
0.000986944
0.000738531
0.000541413
0.000416898
0.000354045
0.000332521
0.000330451
0.000325668
0.000302897
0.000250002
0.000165209
5.64803e-05
-6.81169e-05
-0.000203269
-0.000323662
-0.000387102
-0.000323907
0.00150059
0.00141171
0.00121111
0.000950355
0.000694551
0.000490193
0.000358668
0.000296366
0.000281004
0.000292805
0.000313975
0.000325088
0.000315825
0.000281181
0.000220415
0.00014648
6.05765e-05
-2.386e-05
-7.2923e-05
-2.09338e-05
0.00147403
0.00138122
0.00117465
0.000905951
0.000642421
0.000431462
0.00029121
0.00022435
0.000210812
0.000233452
0.000281881
0.000335965
0.000381888
0.000417198
0.000430134
0.000424553
0.000411411
0.00040134
0.000415831
0.000497216
0.00144496
0.00134521
0.00113001
0.000853225
0.000582641
0.000364349
0.000214129
0.000137359
0.000118863
0.000142435
0.000203049
0.00029895
0.000421978
0.00056906
0.000709869
0.000813066
0.000871554
0.00091879
0.00101703
0.00121455
0.0014081
0.00130155
0.00107907
0.000793056
0.000514273
0.000289585
0.000128737
3.85816e-05
5.64667e-06
1.8474e-05
6.86327e-05
0.000142758
0.000252771
0.000476601
0.000911746
0.00150744
0.0021193
0.00263986
0.00300109
0.00315968
0.00136502
0.00125254
0.00102054
0.000720996
0.000430372
0.000198396
3.36186e-05
-6.00532e-05
-0.00010039
-9.03385e-05
1.0615e-05
0.000283021
0.000725144
0.00121165
0.00165983
0.00204295
0.00235779
0.00261989
0.00281811
0.00289994
0.00131848
0.00121115
0.000973159
0.000656297
0.000329301
4.50284e-05
-0.000175853
-0.000287623
-0.000230602
2.45552e-05
0.000397663
0.000787333
0.00116105
0.00152236
0.00188971
0.00228844
0.00269602
0.00307138
0.00335188
0.00345721
0.00124046
0.00111419
0.000899351
0.000624774
0.000346956
0.000133145
7.65675e-06
-1.3153e-05
5.7192e-05
0.000180926
0.000319958
0.000445089
0.000581788
0.000804666
0.00117571
0.00174952
0.00247841
0.00318051
0.0036848
0.00387866
0.00121806
0.00109742
0.000828524
0.000478802
0.000140527
-9.13306e-05
-0.000168546
-0.000104754
7.01633e-05
0.000316551
0.000616871
0.000964954
0.00133726
0.00173358
0.00214495
0.00254816
0.00292219
0.00323328
0.00344102
0.00347733
0.00112788
0.00100269
0.000794346
0.000528964
0.000240763
-8.82867e-06
-0.000174453
-0.000203352
-4.54591e-05
0.000270109
0.00064557
0.00101736
0.00134211
0.00163409
0.00193269
0.00224955
0.00257996
0.00289152
0.00312816
0.00321038
0.0093562
0.0050293
-0.00189261
-0.00673234
-0.00755871
-0.00623245
-0.00469764
-0.00355045
-0.00278102
-0.00230092
-0.00205328
-0.00195521
-0.00183371
-0.00155414
-0.0011987
-0.000887064
-0.000635265
-0.000468139
-0.000336229
-0.000110184
0.000193072
0.000459121
0.000666072
0.000859897
0.0010767
0.00131788
0.00155078
0.00175057
0.00193572
0.00213997
0.00235885
0.0025571
0.00272245
0.00288358
0.00306413
0.00325812
0.00344731
0.00363571
0.0038447
0.00407005
0.00429498
0.00452163
0.00476588
0.00501666
0.00525016
0.0054769
0.00571495
0.00595548
0.00619149
0.00644529
0.00672012
0.00699335
0.0072617
0.00754546
0.00783008
0.00810274
0.00839512
0.00870438
0.00901566
0.00933485
0.00966376
0.00999723
0.0103288
0.0106691
0.0110182
0.0113771
0.0117388
0.0121138
0.0124985
0.0128899
0.0132857
0.0136841
0.0140866
0.0145015
0.0149313
0.0153697
0.0158197
0.0162688
0.0167261
0.0171988
0.0176697
0.0181582
0.0186582
0.0191603
0.0196841
0.0202091
0.0207402
0.0213022
0.021857
0.0224285
0.0230206
0.023611
0.0242215
0.0248471
0.0254722
0.0261252
0.0267831
0.0274421
0.028116
0.0287776
0.00878663
0.00492255
-0.00179061
-0.00659992
-0.00748453
-0.00619639
-0.00467388
-0.00353266
-0.0027673
-0.00228983
-0.00204405
-0.00194774
-0.00182789
-0.00154938
-0.00119449
-0.000883207
-0.00063161
-0.000464756
-0.000333361
-0.000107673
0.000195524
0.00046151
0.000668297
0.000861928
0.00107855
0.00131963
0.00155246
0.00175216
0.00193717
0.0021413
0.00236013
0.00255834
0.00272361
0.00288465
0.00306513
0.00325908
0.00344822
0.00363655
0.00384548
0.0040708
0.00429569
0.00452229
0.0047665
0.00501727
0.00525074
0.00547744
0.00571546
0.00595598
0.00619196
0.00644573
0.00672054
0.00699376
0.00726209
0.00754583
0.00783045
0.00810309
0.00839544
0.0087047
0.00901596
0.00933515
0.00966404
0.0099975
0.0103291
0.0106693
0.0110184
0.0113773
0.011739
0.012114
0.0124987
0.0128901
0.0132859
0.0136842
0.0140868
0.0145017
0.0149315
0.0153699
0.0158198
0.0162689
0.0167262
0.0171989
0.0176698
0.0181583
0.0186584
0.0191604
0.0196842
0.0202093
0.0207403
0.0213023
0.0218572
0.0224286
0.0230207
0.0236111
0.0242216
0.0248472
0.0254723
0.0261253
0.0267831
0.0274422
0.0281161
0.0287778
0.00820953
0.00481249
-0.00158091
-0.00634064
-0.00735045
-0.00614721
-0.00465054
-0.00351491
-0.00275223
-0.00227742
-0.00203364
-0.00193867
-0.00182014
-0.00154305
-0.00118954
-0.000879337
-0.000628208
-0.000461582
-0.000330596
-0.00010524
0.000197802
0.000463635
0.000670276
0.000863778
0.00108026
0.00132123
0.00155399
0.00175359
0.00193848
0.00214252
0.0023613
0.00255947
0.00272465
0.00288559
0.00306601
0.00325992
0.00344902
0.00363729
0.00384617
0.00407146
0.00429631
0.00452286
0.00476705
0.00501781
0.00525126
0.00547791
0.00571591
0.00595641
0.00619236
0.0064461
0.00672091
0.00699412
0.00726243
0.00754616
0.00783077
0.00810339
0.00839572
0.00870497
0.00901623
0.0093354
0.00966428
0.00999774
0.0103293
0.0106695
0.0110186
0.0113775
0.0117392
0.0121142
0.0124989
0.0128902
0.013286
0.0136844
0.0140869
0.0145018
0.0149316
0.01537
0.01582
0.016269
0.0167264
0.017199
0.01767
0.0181585
0.0186585
0.0191605
0.0196843
0.0202094
0.0207404
0.0213024
0.0218572
0.0224287
0.0230208
0.0236112
0.0242216
0.0248472
0.0254723
0.0261254
0.0267832
0.0274422
0.0281161
0.0287779
0.00766877
0.00471823
-0.00130829
-0.00600199
-0.00716116
-0.00607765
-0.00461904
-0.00349059
-0.00273129
-0.00226114
-0.00202075
-0.00192659
-0.00180821
-0.00153256
-0.00118173
-0.000874056
-0.000624084
-0.000457558
-0.00032668
-0.00010185
0.000200487
0.000465849
0.000672413
0.00086593
0.00108226
0.00132299
0.00155561
0.00175516
0.00193999
0.00214393
0.00236261
0.00256069
0.00272578
0.00288664
0.00306698
0.00326083
0.00344988
0.00363809
0.00384692
0.00407218
0.00429698
0.00452349
0.00476764
0.0050184
0.00525181
0.00547842
0.00571639
0.00595687
0.00619278
0.00644649
0.0067213
0.0069945
0.00726278
0.0075465
0.00783111
0.00810369
0.008396
0.00870526
0.0090165
0.00933566
0.00966454
0.00999799
0.0103295
0.0106697
0.0110188
0.0113777
0.0117394
0.0121144
0.0124991
0.0128904
0.0132862
0.0136846
0.0140871
0.0145019
0.0149317
0.0153701
0.0158201
0.0162692
0.0167265
0.0171991
0.0176701
0.0181586
0.0186586
0.0191606
0.0196844
0.0202095
0.0207405
0.0213025
0.0218573
0.0224288
0.0230209
0.0236113
0.0242217
0.0248473
0.0254724
0.0261254
0.0267833
0.0274423
0.0281162
0.0287782
0.0071513
0.00461142
-0.00102677
-0.00563989
-0.00694995
-0.00599878
-0.00458374
-0.00346147
-0.0027048
-0.00224062
-0.00200483
-0.00191084
-0.00179114
-0.00151678
-0.00117002
-0.000866586
-0.00061873
-0.000452006
-0.000320556
-9.64906e-05
0.000204154
0.000468408
0.000674961
0.000868743
0.00108486
0.00132505
0.00155735
0.00175695
0.00194189
0.00214575
0.00236422
0.00256216
0.0027272
0.00288797
0.00306817
0.00326191
0.00345091
0.00363906
0.00384784
0.00407304
0.00429779
0.00452425
0.00476837
0.00501909
0.00525246
0.00547901
0.00571694
0.00595739
0.00619325
0.00644694
0.00672174
0.00699493
0.00726318
0.00754688
0.00783149
0.00810402
0.00839632
0.00870557
0.00901679
0.00933594
0.00966482
0.00999827
0.0103298
0.01067
0.0110191
0.011378
0.0117396
0.0121146
0.0124993
0.0128906
0.0132864
0.0136848
0.0140872
0.0145021
0.0149319
0.0153703
0.0158202
0.0162693
0.0167266
0.0171993
0.0176702
0.0181587
0.0186587
0.0191607
0.0196845
0.0202096
0.0207406
0.0213026
0.0218574
0.0224288
0.023021
0.0236114
0.0242218
0.0248474
0.0254725
0.0261255
0.0267834
0.0274424
0.0281163
0.0287785
0.00664687
0.00447285
-0.000755963
-0.00526867
-0.00672499
-0.00591463
-0.00454766
-0.00343027
-0.00267482
-0.00221706
-0.00198666
-0.00189236
-0.00177017
-0.00149681
-0.00115499
-0.000857098
-0.00061211
-0.000444717
-0.000311784
-8.86111e-05
0.000209247
0.000471585
0.00067813
0.000872475
0.00108832
0.00132752
0.00155916
0.00175889
0.00194418
0.002148
0.00236614
0.00256393
0.00272902
0.00288976
0.00306974
0.00326326
0.00345219
0.00364031
0.00384898
0.00407407
0.00429877
0.0045252
0.00476927
0.00501995
0.00525326
0.00547975
0.00571761
0.00595801
0.00619383
0.00644748
0.00672226
0.00699543
0.00726365
0.00754733
0.00783192
0.00810441
0.00839668
0.00870593
0.00901713
0.00933627
0.00966514
0.00999857
0.0103301
0.0106703
0.0110193
0.0113782
0.0117398
0.0121148
0.0124995
0.0128908
0.0132866
0.013685
0.0140874
0.0145023
0.0149321
0.0153705
0.0158204
0.0162695
0.0167268
0.0171994
0.0176703
0.0181588
0.0186588
0.0191609
0.0196846
0.0202097
0.0207407
0.0213027
0.0218575
0.0224289
0.0230211
0.0236115
0.0242219
0.0248475
0.0254726
0.0261256
0.0267834
0.0274425
0.0281165
0.0287789
0.00615284
0.00429969
-0.000498287
-0.00488736
-0.00648415
-0.00582377
-0.00451089
-0.00339795
-0.00264222
-0.0021909
-0.00196663
-0.00187216
-0.00174704
-0.00147454
-0.00113811
-0.000846428
-0.000604612
-0.000435958
-0.000300631
-7.83362e-05
0.000215876
0.000475595
0.000682096
0.000877254
0.00109279
0.00133056
0.00156114
0.00176098
0.00194681
0.00215058
0.00236826
0.0025659
0.00273127
0.00289211
0.0030718
0.00326499
0.00345384
0.00364194
0.00385045
0.00407532
0.00429995
0.00452638
0.0047704
0.005021
0.00525427
0.00548069
0.00571845
0.00595876
0.00619454
0.00644814
0.00672289
0.00699604
0.00726424
0.00754788
0.00783243
0.00810488
0.00839712
0.00870634
0.00901752
0.00933665
0.00966551
0.00999893
0.0103304
0.0106706
0.0110196
0.0113785
0.0117401
0.0121151
0.0124998
0.0128911
0.0132869
0.0136852
0.0140876
0.0145025
0.0149323
0.0153706
0.0158206
0.0162697
0.0167269
0.0171996
0.0176705
0.018159
0.018659
0.019161
0.0196848
0.0202098
0.0207408
0.0213029
0.0218577
0.022429
0.0230212
0.0236116
0.024222
0.0248476
0.0254727
0.0261256
0.0267835
0.0274426
0.0281166
0.0287795
0.00567432
0.00409871
-0.000252955
-0.00449447
-0.00622519
-0.00572479
-0.00447362
-0.0033654
-0.00260745
-0.00216216
-0.00194477
-0.00185071
-0.0017227
-0.00145101
-0.00112019
-0.000835049
-0.000596522
-0.000426193
-0.000287831
-6.62935e-05
0.000223799
0.000480465
0.000686881
0.000883002
0.00109818
0.00133422
0.00156343
0.00176332
0.00194974
0.00215338
0.0023704
0.00256791
0.00273381
0.00289498
0.00307436
0.00326717
0.00345597
0.0036441
0.00385234
0.00407685
0.00430136
0.00452778
0.00477171
0.00502223
0.00525551
0.0054819
0.00571951
0.0059597
0.00619542
0.00644897
0.00672365
0.00699679
0.00726498
0.00754856
0.00783304
0.00810546
0.00839766
0.00870684
0.00901799
0.00933712
0.00966595
0.00999935
0.0103308
0.0106709
0.01102
0.0113788
0.0117404
0.0121154
0.0125001
0.0128914
0.0132871
0.0136855
0.0140879
0.0145027
0.0149325
0.0153709
0.0158208
0.0162699
0.0167271
0.0171998
0.0176707
0.0181591
0.0186592
0.0191612
0.0196849
0.02021
0.0207409
0.021303
0.0218578
0.0224292
0.0230213
0.0236117
0.0242221
0.0248477
0.0254728
0.0261257
0.0267836
0.0274427
0.0281168
0.0287801
0.00521977
0.00387703
-2.37911e-05
-0.00409341
-0.00594815
-0.00561683
-0.00443601
-0.00333332
-0.00257086
-0.00213073
-0.00192098
-0.00182815
-0.00169746
-0.00142653
-0.00110137
-0.000822964
-0.000587871
-0.000415747
-0.000274014
-5.30939e-05
0.000232688
0.000486077
0.000692372
0.000889514
0.0011043
0.00133842
0.00156611
0.00176603
0.00195302
0.00215635
0.00237248
0.00256982
0.00273645
0.00289816
0.00307731
0.00326972
0.00345856
0.00364682
0.00385475
0.00407877
0.00430304
0.0045294
0.00477316
0.00502356
0.00525693
0.00548337
0.00572083
0.00596088
0.00619655
0.00644998
0.00672454
0.00699768
0.00726589
0.0075494
0.00783381
0.00810619
0.00839834
0.00870743
0.00901854
0.00933768
0.00966649
0.00999985
0.0103313
0.0106714
0.0110204
0.0113792
0.0117408
0.0121157
0.0125004
0.0128917
0.0132875
0.0136858
0.0140882
0.014503
0.0149328
0.0153711
0.0158211
0.0162701
0.0167274
0.0172
0.0176709
0.0181593
0.0186594
0.0191613
0.0196851
0.0202101
0.0207411
0.0213031
0.0218579
0.0224293
0.0230215
0.0236118
0.0242222
0.0248478
0.0254729
0.0261259
0.0267838
0.0274428
0.028117
0.0287809
0.00479645
0.00364001
0.000182117
-0.0036897
-0.00565318
-0.00549804
-0.0043973
-0.00330205
-0.00253277
-0.00209655
-0.00189508
-0.00180443
-0.00167135
-0.0014011
-0.00108159
-0.000810081
-0.000578643
-0.000404775
-0.000259502
-3.9066e-05
0.000242325
0.000492295
0.000698423
0.000896602
0.00111096
0.00134307
0.00156917
0.00176911
0.00195666
0.00215953
0.00237454
0.0025716
0.00273905
0.00290146
0.00308046
0.00327252
0.00346151
0.00365003
0.00385768
0.00408112
0.00430508
0.00453129
0.00477474
0.00502492
0.00525842
0.005485
0.00572237
0.00596233
0.00619796
0.00645123
0.00672557
0.00699869
0.00726695
0.0075504
0.00783474
0.00810711
0.00839918
0.00870814
0.00901921
0.00933834
0.00966713
0.0100005
0.0103318
0.0106719
0.0110208
0.0113796
0.0117412
0.0121161
0.0125008
0.0128921
0.0132879
0.0136861
0.0140885
0.0145033
0.0149331
0.0153714
0.0158214
0.0162704
0.0167276
0.0172003
0.0176711
0.0181596
0.0186596
0.0191615
0.0196853
0.0202103
0.0207413
0.0213033
0.0218581
0.0224295
0.0230216
0.023612
0.0242224
0.024848
0.025473
0.026126