/*--------------------------------*- C++ -*----------------------------------*\
| =========                 |                                                 |
| \\      /  F ield         | OpenFOAM: The Open Source CFD Toolbox           |
|  \\    /   O peration     | Version:  3.0.1                                 |
|   \\  /    A nd           | Web:      www.OpenFOAM.org                      |
|    \\/     M anipulation  |                                                 |
\*---------------------------------------------------------------------------*/
FoamFile
{
    version     2.0;
    format      ascii;
    class       surfaceScalarField;
    location    "1.8";
    object      phi;
}
// * * * * * * * * * * * * * * * * * * * * * * * * * * * * * * * * * * * * * //

dimensions      [0 3 -1 0 0 0 0];

internalField   nonuniform List<scalar> 
19000
(
1.18405e-06
-1.134e-08
1.17972e-06
1.73696e-07
1.14798e-06
3.6302e-07
1.13352e-06
-6.50328e-07
1.20572e-06
-2.143e-07
1.16606e-06
1.33956e-07
1.13639e-06
2.14495e-07
1.15167e-06
5.19341e-07
1.14011e-06
-8.94624e-08
1.14518e-06
-9.61868e-08
1.16587e-06
-3.15354e-07
1.15899e-06
-2.36505e-07
1.17245e-06
1.39712e-07
1.14537e-06
-2.03409e-07
1.16183e-06
1.1147e-07
1.13722e-06
5.97197e-08
1.14392e-06
1.29275e-07
1.13247e-06
1.55998e-07
1.12891e-06
1.80292e-07
1.43266e-07
1.10079e-06
1.23894e-06
-2.60205e-08
1.23725e-06
1.7539e-07
1.20216e-06
3.98109e-07
1.18666e-06
-6.34825e-07
1.25988e-06
-2.87528e-07
1.2243e-06
1.69536e-07
1.1896e-06
2.49197e-07
1.21225e-06
4.96693e-07
1.19842e-06
-7.56327e-08
1.20525e-06
-1.0302e-07
1.22249e-06
-3.32593e-07
1.21853e-06
-2.32538e-07
1.2256e-06
1.32642e-07
1.20561e-06
-1.83425e-07
1.21016e-06
1.06918e-07
1.20331e-06
6.65718e-08
1.18808e-06
1.44507e-07
1.20205e-06
1.42031e-07
1.16924e-06
2.13105e-07
1.2909e-07
1.18341e-06
1.29456e-06
-3.78007e-08
1.29717e-06
1.72784e-07
1.26105e-06
4.34231e-07
1.24574e-06
-6.19513e-07
1.31228e-06
-3.54074e-07
1.28958e-06
1.92242e-07
1.24644e-06
2.92335e-07
1.27301e-06
4.7012e-07
1.25918e-06
-6.18034e-08
1.26848e-06
-1.12317e-07
1.27836e-06
-3.42474e-07
1.28117e-06
-2.35348e-07
1.28243e-06
1.31383e-07
1.27189e-06
-1.7289e-07
1.26587e-06
1.12935e-07
1.2684e-06
6.40479e-08
1.24871e-06
1.64194e-07
1.25677e-06
1.3397e-07
1.23998e-06
2.29895e-07
1.38969e-07
1.2301e-06
1.35158e-06
-4.5277e-08
1.35837e-06
1.65992e-07
1.32502e-06
4.67582e-07
1.31168e-06
-6.06173e-07
1.36512e-06
-4.07516e-07
1.35678e-06
2.00588e-07
1.30947e-06
3.39637e-07
1.33313e-06
4.46463e-07
1.32336e-06
-5.20376e-08
1.33232e-06
-1.21277e-07
1.33617e-06
-3.46318e-07
1.34222e-06
-2.41402e-07
1.34343e-06
1.30179e-07
1.33718e-06
-1.66642e-07
1.32921e-06
1.20905e-07
1.33054e-06
6.27163e-08
1.3174e-06
1.77338e-07
1.31516e-06
1.36204e-07
1.30993e-06
2.35123e-07
1.54689e-07
1.29421e-06
1.41116e-06
-4.80809e-08
1.4205e-06
1.56651e-07
1.39403e-06
4.94056e-07
1.38329e-06
-5.95437e-07
1.42019e-06
-4.44418e-07
1.42273e-06
1.98048e-07
1.37948e-06
3.82888e-07
1.39583e-06
4.30116e-07
1.39178e-06
-4.79873e-08
1.39842e-06
-1.27924e-07
1.3984e-06
-3.4629e-07
1.40395e-06
-2.46952e-07
1.4075e-06
1.26629e-07
1.40261e-06
-1.61756e-07
1.39565e-06
1.2787e-07
1.39391e-06
6.44496e-08
1.38577e-06
1.85478e-07
1.37925e-06
1.42724e-07
1.37714e-06
2.37233e-07
1.69401e-07
1.36243e-06
1.47464e-06
-4.7044e-08
1.48426e-06
1.47026e-07
1.4674e-06
5.1092e-07
1.45873e-06
-5.86763e-07
1.47927e-06
-4.64961e-07
1.48748e-06
1.89842e-07
1.45489e-06
4.15474e-07
1.46422e-06
4.20782e-07
1.46417e-06
-4.79354e-08
1.46844e-06
-1.32193e-07
1.4656e-06
-3.4345e-07
1.46905e-06
-2.50406e-07
1.47427e-06
1.21417e-07
1.47005e-06
-1.57543e-07
1.46415e-06
1.33771e-07
1.46045e-06
6.8149e-08
1.4548e-06
1.9113e-07
1.44697e-06
1.50552e-07
1.44648e-06
2.37727e-07
1.83145e-07
1.43274e-06
1.54294e-06
-4.37697e-08
1.55107e-06
1.38899e-07
1.54407e-06
5.17923e-07
1.53655e-06
-5.79251e-07
1.54348e-06
-4.71885e-07
1.55313e-06
1.80192e-07
1.53314e-06
4.35463e-07
1.53868e-06
4.15237e-07
1.53994e-06
-4.91905e-08
1.54243e-06
-1.34682e-07
1.53711e-06
-3.38132e-07
1.53835e-06
-2.51646e-07
1.54386e-06
1.15906e-07
1.54005e-06
-1.53732e-07
1.53539e-06
1.38436e-07
1.53083e-06
7.27094e-08
1.52708e-06
1.94871e-07
1.51869e-06
1.58949e-07
1.52008e-06
2.36337e-07
1.96109e-07
1.50711e-06
1.6162e-06
-3.98385e-08
1.62217e-06
1.32923e-07
1.62308e-06
5.17015e-07
1.6161e-06
-5.72267e-07
1.61307e-06
-4.68855e-07
1.62186e-06
1.714e-07
1.61266e-06
4.44661e-07
1.61768e-06
4.10222e-07
1.61861e-06
-5.01224e-08
1.61977e-06
-1.3584e-07
1.61219e-06
-3.3056e-07
1.61162e-06
-2.51073e-07
1.61646e-06
1.11067e-07
1.61266e-06
-1.49928e-07
1.60964e-06
1.41448e-07
1.60488e-06
7.747e-08
1.60341e-06
1.96343e-07
1.59475e-06
1.67609e-07
1.59805e-06
2.33036e-07
2.08029e-07
1.58613e-06
1.69395e-06
-3.62169e-08
1.69814e-06
1.28733e-07
1.7041e-06
5.11056e-07
1.69733e-06
-5.65492e-07
1.68777e-06
-4.59296e-07
1.69499e-06
1.64176e-07
1.69349e-06
4.46164e-07
1.69975e-06
4.0396e-07
1.69992e-06
-5.02941e-08
1.70007e-06
-1.35986e-07
1.69056e-06
-3.21054e-07
1.68859e-06
-2.49102e-07
1.69237e-06
1.0729e-07
1.68814e-06
-1.45697e-07
1.68702e-06
1.42562e-07
1.68227e-06
8.22235e-08
1.68341e-06
1.952e-07
1.67478e-06
1.76241e-07
1.67966e-06
2.28154e-07
2.18504e-07
1.66919e-06
1.77569e-06
-3.31823e-08
1.77892e-06
1.25503e-07
1.78741e-06
5.02558e-07
1.78061e-06
-5.58692e-07
1.76721e-06
-4.45894e-07
1.77309e-06
1.58296e-07
1.77653e-06
4.42724e-07
1.78442e-06
3.96074e-07
1.7839e-06
-4.97767e-08
1.7833e-06
-1.35383e-07
1.7723e-06
-3.10058e-07
1.76925e-06
-2.46046e-07
1.77205e-06
1.0449e-07
1.76704e-06
-1.40694e-07
1.7678e-06
1.41801e-07
1.76293e-06
8.70992e-08
1.76665e-06
1.91481e-07
1.75828e-06
1.84606e-07
1.76418e-06
2.2226e-07
2.27116e-07
1.75557e-06
1.86117e-06
-3.05992e-08
1.86421e-06
1.22459e-07
1.87365e-06
4.93113e-07
1.86653e-06
-5.51568e-07
1.85115e-06
-4.30514e-07
1.8563e-06
1.53149e-07
1.86275e-06
4.3627e-07
1.87191e-06
3.86918e-07
1.87083e-06
-4.86986e-08
1.86965e-06
-1.34203e-07
1.85765e-06
-2.98058e-07
1.85375e-06
-2.42144e-07
1.85594e-06
1.02297e-07
1.84996e-06
-1.34711e-07
1.85243e-06
1.39331e-07
1.84717e-06
9.23572e-08
1.85304e-06
1.85606e-07
1.84513e-06
1.92519e-07
1.8513e-06
2.16089e-07
2.33477e-07
1.84494e-06
1.95046e-06
-2.82201e-08
1.95382e-06
1.191e-07
1.96347e-06
4.83461e-07
1.95569e-06
-5.43784e-07
1.93947e-06
-4.14299e-07
1.94452e-06
1.48105e-07
1.95279e-06
4.27995e-07
1.96269e-06
3.77023e-07
1.96115e-06
-4.71585e-08
1.95944e-06
-1.32494e-07
1.94687e-06
-2.85486e-07
1.9423e-06
-2.37581e-07
1.94435e-06
1.0025e-07
1.9373e-06
-1.27662e-07
1.94128e-06
1.35353e-07
1.93543e-06
9.82038e-08
1.94283e-06
1.7821e-07
1.93556e-06
1.99791e-07
1.94119e-06
2.10455e-07
2.37271e-07
1.9374e-06
2.04382e-06
-2.58494e-08
2.04772e-06
1.15195e-07
2.05738e-06
4.73805e-07
2.04867e-06
-5.35072e-07
2.03222e-06
-3.9785e-07
2.03759e-06
1.42728e-07
2.04703e-06
4.18563e-07
2.0572e-06
3.66847e-07
2.05531e-06
-4.52701e-08
2.05305e-06
-1.30227e-07
2.04023e-06
-2.72671e-07
2.03512e-06
-2.32469e-07
2.03744e-06
9.79348e-08
2.02932e-06
-1.19551e-07
2.03461e-06
1.30065e-07
2.02813e-06
1.04692e-07
2.03634e-06
1.7e-07
2.02994e-06
2.06182e-07
2.03436e-06
2.06044e-07
2.38395e-07
2.03323e-06
2.14154e-06
-2.33845e-08
2.14602e-06
1.10711e-07
2.15572e-06
4.64105e-07
2.14595e-06
-5.25303e-07
2.12953e-06
-3.81429e-07
2.1354e-06
1.36859e-07
2.14567e-06
4.08296e-07
2.15581e-06
3.56705e-07
2.15373e-06
-4.3188e-08
2.15085e-06
-1.27355e-07
2.13803e-06
-2.59844e-07
2.1324e-06
-2.26845e-07
2.13527e-06
9.50673e-08
2.12616e-06
-1.10437e-07
2.13254e-06
1.23683e-07
2.12553e-06
1.117e-07
2.13387e-06
1.61663e-07
2.12865e-06
2.11399e-07
2.13143e-06
2.03263e-07
2.37024e-07
2.1328e-06
2.24391e-06
-2.08009e-08
2.24888e-06
1.05735e-07
2.25874e-06
4.54248e-07
2.24792e-06
-5.1449e-07
2.23163e-06
-3.65135e-07
2.23791e-06
1.30578e-07
2.2489e-06
3.97305e-07
2.25881e-06
3.46794e-07
2.25672e-06
-4.10972e-08
2.25321e-06
-1.23842e-07
2.24053e-06
-2.47166e-07
2.23437e-06
-2.20687e-07
2.23793e-06
9.15129e-08
2.22792e-06
-1.00428e-07
2.23513e-06
1.16474e-07
2.22786e-06
1.18972e-07
2.2357e-06
1.53819e-07
2.23196e-06
2.15141e-07
2.23303e-06
2.02186e-07
2.33605e-07
2.23645e-06
2.3512e-06
-1.81236e-08
2.35652e-06
1.00412e-07
2.36664e-06
4.44129e-07
2.35488e-06
-5.02727e-07
2.33877e-06
-3.49023e-07
2.34522e-06
1.24119e-07
2.35692e-06
3.85605e-07
2.36649e-06
3.37231e-07
2.36458e-06
-3.91855e-08
2.36041e-06
-1.19678e-07
2.34799e-06
-2.34747e-07
2.34127e-06
-2.13963e-07
2.34551e-06
8.72756e-08
2.33476e-06
-8.96806e-08
2.34247e-06
1.08759e-07
2.33528e-06
1.26168e-07
2.34211e-06
1.46992e-07
2.34008e-06
2.17165e-07
2.33963e-06
2.02639e-07
2.28742e-07
2.34449e-06
2.46367e-06
-1.54008e-08
2.46919e-06
9.48982e-08
2.47965e-06
4.33668e-07
2.46705e-06
-4.90126e-07
2.45119e-06
-3.33167e-07
2.45754e-06
1.17774e-07
2.46997e-06
3.73167e-07
2.47912e-06
3.28087e-07
2.47754e-06
-3.76135e-08
2.47274e-06
-1.14875e-07
2.46065e-06
-2.22652e-07
2.45335e-06
-2.06668e-07
2.45815e-06
8.24725e-08
2.44689e-06
-7.84134e-08
2.45474e-06
1.00905e-07
2.44798e-06
1.32934e-07
2.45343e-06
1.41536e-07
2.45321e-06
2.17392e-07
2.45157e-06
2.04274e-07
2.23073e-07
2.45724e-06
2.58158e-06
-1.26851e-08
2.58715e-06
8.93256e-08
2.59801e-06
4.22807e-07
2.58464e-06
-4.76756e-07
2.56915e-06
-3.17673e-07
2.57511e-06
1.11814e-07
2.58832e-06
3.59958e-07
2.59699e-06
3.19419e-07
2.59587e-06
-3.6497e-08
2.59046e-06
-1.09469e-07
2.5787e-06
-2.10893e-07
2.5709e-06
-1.98862e-07
2.57606e-06
7.73081e-08
2.56454e-06
-6.68938e-08
2.57216e-06
9.32869e-08
2.56614e-06
1.38954e-07
2.57007e-06
1.37609e-07
2.57151e-06
2.15951e-07
2.56915e-06
2.06627e-07
2.1719e-07
2.57504e-06
2.70517e-06
-1.00245e-08
2.7107e-06
8.37986e-08
2.72201e-06
4.11495e-07
2.70789e-06
-4.62635e-07
2.69288e-06
-3.02667e-07
2.69823e-06
1.06461e-07
2.71225e-06
3.45944e-07
2.7204e-06
3.1127e-07
2.71979e-06
-3.58945e-08
2.71385e-06
-1.03524e-07
2.70237e-06
-1.99415e-07
2.69419e-06
-1.90682e-07
2.69946e-06
7.20423e-08
2.68797e-06
-5.54102e-08
2.69501e-06
8.62484e-08
2.68996e-06
1.4401e-07
2.69239e-06
1.35171e-07
2.69521e-06
2.13133e-07
2.69264e-06
2.09197e-07
2.11578e-07
2.69825e-06
2.8347e-06
-7.46067e-09
2.84011e-06
7.83979e-08
2.85193e-06
3.99675e-07
2.83702e-06
-4.47729e-07
2.82264e-06
-2.88286e-07
2.82722e-06
1.0188e-07
2.84206e-06
3.31101e-07
2.84966e-06
3.03667e-07
2.84957e-06
-3.58011e-08
2.84319e-06
-9.71474e-08
2.83188e-06
-1.881e-07
2.82352e-06
-1.82323e-07
2.82862e-06
6.6941e-08
2.81742e-06
-4.42095e-08
2.82365e-06
8.00196e-08
2.81963e-06
1.48035e-07
2.82076e-06
1.34036e-07
2.82462e-06
2.0927e-07
2.82226e-06
2.1156e-07
2.06565e-07
2.82727e-06
2.97047e-06
-5.03114e-09
2.97567e-06
7.31932e-08
2.98807e-06
3.87279e-07
2.97231e-06
-4.31974e-07
2.95868e-06
-2.74654e-07
2.96238e-06
9.81822e-08
2.97805e-06
3.15427e-07
2.98511e-06
2.96609e-07
2.98546e-06
-3.61477e-08
2.97881e-06
-9.0498e-08
2.96748e-06
-1.76771e-07
2.95917e-06
-1.74015e-07
2.96387e-06
6.22413e-08
2.95311e-06
-3.34552e-08
2.95845e-06
7.46851e-08
2.95537e-06
1.5111e-07
2.95544e-06
1.33967e-07
2.96009e-06
2.04621e-07
2.95823e-06
2.13426e-07
2.02327e-07
2.96246e-06
3.11275e-06
-2.77174e-09
3.11769e-06
6.82536e-08
3.13073e-06
3.74232e-07
3.11405e-06
-4.15293e-07
3.10128e-06
-2.61878e-07
3.10403e-06
9.54309e-08
3.1205e-06
2.98951e-07
3.12706e-06
2.90051e-07
3.12771e-06
-3.67994e-08
3.12101e-06
-8.37941e-08
3.10944e-06
-1.65202e-07
3.1014e-06
-1.65974e-07
3.10554e-06
5.80968e-08
3.09527e-06
-2.31845e-08
3.09975e-06
7.02044e-08
3.09748e-06
1.53382e-07
3.09668e-06
1.34773e-07
3.10196e-06
1.99342e-07
3.10079e-06
2.14592e-07
1.98947e-07
3.10417e-06
3.26186e-06
-7.17916e-10
3.26646e-06
6.36533e-08
3.28023e-06
3.60457e-07
3.26256e-06
-3.97623e-07
3.25072e-06
-2.50036e-07
3.25251e-06
9.36404e-08
3.26971e-06
2.81754e-07
3.27587e-06
2.8389e-07
3.27663e-06
-3.75582e-08
3.27014e-06
-7.7307e-08
3.2581e-06
-1.53158e-07
3.25048e-06
-1.58355e-07
3.25403e-06
5.45447e-08
3.24414e-06
-1.32969e-08
3.24789e-06
6.64521e-08
3.24629e-06
1.54986e-07
3.24471e-06
1.36358e-07
3.25052e-06
1.93524e-07
3.25022e-06
2.14894e-07
1.96435e-07
3.25274e-06
3.41812e-06
1.09516e-09
3.4223e-06
5.94735e-08
3.43688e-06
3.45879e-07
3.41817e-06
-3.78918e-07
3.40731e-06
-2.39176e-07
3.40817e-06
9.27807e-08
3.42596e-06
2.63969e-07
3.43189e-06
2.7796e-07
3.4325e-06
-3.81711e-08
3.42653e-06
-7.1335e-08
3.41382e-06
-1.40447e-07
3.40666e-06
-1.51198e-07
3.40971e-06
5.14931e-08
3.4e-06
-3.58704e-09
3.40317e-06
6.32804e-08
3.40219e-06
1.55963e-07
3.39984e-06
1.38709e-07
3.40607e-06
1.87292e-07
3.40684e-06
2.14127e-07
1.94762e-07
3.40852e-06
3.58187e-06
2.6328e-09
3.58555e-06
5.58007e-08
3.60099e-06
3.30432e-07
3.58124e-06
-3.59166e-07
3.57137e-06
-2.29309e-07
3.57138e-06
9.27737e-08
3.58956e-06
2.45789e-07
3.59549e-06
2.72033e-07
3.59565e-06
-3.8337e-08
3.59051e-06
-6.61859e-08
3.57701e-06
-1.26949e-07
3.57021e-06
-1.44402e-07
3.57297e-06
4.87359e-08
3.5632e-06
6.18109e-09
3.56585e-06
6.06347e-08
3.5656e-06
1.56205e-07
3.5625e-06
1.41818e-07
3.56887e-06
1.80914e-07
3.57096e-06
2.12044e-07
1.93815e-07
3.5719e-06
3.75348e-06
3.86096e-09
3.75655e-06
5.27236e-08
3.77292e-06
3.14065e-07
3.75215e-06
-3.38391e-07
3.74324e-06
-2.20403e-07
3.74253e-06
9.34852e-08
3.76084e-06
2.27475e-07
3.76705e-06
2.65821e-07
3.76646e-06
-3.77465e-08
3.76238e-06
-6.21041e-08
3.74813e-06
-1.12694e-07
3.74143e-06
-1.37704e-07
3.74416e-06
4.60046e-08
3.73416e-06
1.61833e-08
3.7362e-06
5.85888e-08
3.73687e-06
1.55539e-07
3.73313e-06
1.45558e-07
3.73924e-06
1.74807e-07
3.74285e-06
2.08433e-07
1.93333e-07
3.74333e-06
3.9333e-06
4.74749e-09
3.9357e-06
5.03282e-08
3.95301e-06
2.96752e-07
3.93128e-06
-3.16661e-07
3.92326e-06
-2.12378e-07
3.92202e-06
9.47204e-08
3.94014e-06
2.09358e-07
3.94697e-06
2.58986e-07
3.94533e-06
-3.60984e-08
3.94246e-06
-5.92354e-08
3.92763e-06
-9.78663e-08
3.92066e-06
-1.30733e-07
3.92363e-06
4.30351e-08
3.91332e-06
2.64882e-08
3.91455e-06
5.73568e-08
3.91631e-06
1.53785e-07
3.91221e-06
1.49656e-07
3.91758e-06
1.69437e-07
3.92275e-06
2.03262e-07
1.92864e-07
3.92322e-06
4.12174e-06
5.26254e-09
4.12337e-06
4.86941e-08
4.14163e-06
2.78492e-07
4.11907e-06
-2.94098e-07
4.11179e-06
-2.05097e-07
4.11029e-06
9.62157e-08
4.12782e-06
1.91824e-07
4.13563e-06
2.51175e-07
4.13269e-06
-3.31559e-08
4.13101e-06
-5.75568e-08
4.11596e-06
-8.28113e-08
4.10832e-06
-1.23096e-07
4.11167e-06
3.96902e-08
4.10119e-06
3.6968e-08
4.10132e-06
5.72221e-08
4.10422e-06
1.50885e-07
4.10017e-06
1.53706e-07
4.10444e-06
1.65168e-07
4.1109e-06
1.96801e-07
1.91812e-07
4.11195e-06
4.31918e-06
5.3802e-09
4.31999e-06
4.78869e-08
4.33917e-06
2.59319e-07
4.31595e-06
-2.70882e-07
4.30921e-06
-1.98353e-07
4.30778e-06
9.76425e-08
4.3243e-06
1.75304e-07
4.33342e-06
2.4205e-07
4.32908e-06
-2.88157e-08
4.32835e-06
-5.68248e-08
4.31353e-06
-6.79881e-08
4.30488e-06
-1.14449e-07
4.30859e-06
3.59865e-08
4.2982e-06
4.73539e-08
4.29697e-06
5.84476e-08
4.30095e-06
1.4691e-07
4.29738e-06
1.57275e-07
4.30041e-06
1.62137e-07
4.30762e-06
1.89595e-07
1.89625e-07
4.3098e-06
4.52607e-06
5.08121e-09
4.52601e-06
4.79499e-08
4.54602e-06
2.39308e-07
4.5224e-06
-2.4726e-07
4.51592e-06
-1.91873e-07
4.51495e-06
9.86132e-08
4.53001e-06
1.60247e-07
4.54073e-06
2.31328e-07
4.53505e-06
-2.31416e-08
4.53485e-06
-5.66219e-08
4.52072e-06
-5.38547e-08
4.51084e-06
-1.04576e-07
4.51474e-06
3.20869e-08
4.50476e-06
5.73361e-08
4.50203e-06
6.11719e-08
4.50689e-06
1.42055e-07
4.5042e-06
1.59962e-07
4.50608e-06
1.60257e-07
4.51339e-06
1.82289e-07
1.86017e-07
4.517e-06
4.74284e-06
4.35508e-09
4.7419e-06
4.88949e-08
4.76261e-06
2.18593e-07
4.73891e-06
-2.2356e-07
4.73235e-06
-1.8531e-07
4.73225e-06
9.87081e-08
4.74544e-06
1.47064e-07
4.75784e-06
2.18929e-07
4.75114e-06
-1.64506e-08
4.75096e-06
-5.64379e-08
4.73787e-06
-4.07661e-08
4.7267e-06
-9.3408e-08
4.73052e-06
2.82747e-08
4.72122e-06
6.66318e-08
4.71706e-06
6.53318e-08
4.72248e-06
1.36633e-07
4.721e-06
1.61442e-07
4.72199e-06
1.59272e-07
4.72883e-06
1.75446e-07
1.81074e-07
4.73377e-06
4.96995e-06
3.20202e-09
4.96815e-06
5.06936e-08
4.98937e-06
1.97371e-07
4.96601e-06
-2.00193e-07
4.95897e-06
-1.78267e-07
4.96014e-06
9.75325e-08
4.97115e-06
1.36058e-07
4.98502e-06
2.05054e-07
4.97788e-06
-9.30462e-09
4.97721e-06
-5.57745e-08
4.96534e-06
-2.88914e-08
4.95296e-06
-8.10291e-08
4.95632e-06
2.49102e-08
4.94798e-06
7.49711e-08
4.94262e-06
7.0696e-08
4.94824e-06
1.31016e-07
4.94817e-06
1.61508e-07
4.94857e-06
1.58876e-07
4.95464e-06
1.69376e-07
1.75236e-07
4.96048e-06
5.20788e-06
1.63569e-09
5.20531e-06
5.32662e-08
5.22676e-06
1.75917e-07
5.20423e-06
-1.77664e-07
5.19629e-06
-1.70319e-07
5.19903e-06
9.479e-08
5.20781e-06
1.27276e-07
5.22261e-06
1.90258e-07
5.21567e-06
-2.36299e-09
5.21416e-06
-5.42737e-08
5.20346e-06
-1.81857e-08
5.19004e-06
-6.76111e-08
5.19262e-06
2.23358e-08
5.18553e-06
8.20578e-08
5.17926e-06
7.69651e-08
5.18472e-06
1.25551e-07
5.18614e-06
1.60088e-07
5.18625e-06
1.58769e-07
5.19147e-06
1.6416e-07
1.6906e-07
5.19764e-06
5.45714e-06
-3.16264e-10
5.45392e-06
5.64828e-08
5.47527e-06
1.54569e-07
5.45414e-06
-1.56531e-07
5.44491e-06
-1.61087e-07
5.44931e-06
9.03882e-08
5.45617e-06
1.20413e-07
5.47109e-06
1.7534e-07
5.46486e-06
3.86128e-09
5.46237e-06
-5.17823e-08
5.45261e-06
-8.41807e-09
5.43835e-06
-5.33521e-08
5.43994e-06
2.07412e-08
5.43439e-06
8.76071e-08
5.42755e-06
8.38047e-08
5.43252e-06
1.20587e-07
5.43539e-06
1.5721e-07
5.43549e-06
1.58673e-07
5.43988e-06
1.59768e-07
1.62968e-07
5.44598e-06
5.71825e-06
-2.61188e-09
5.71457e-06
6.01681e-08
5.73543e-06
1.33712e-07
5.71628e-06
-1.37383e-07
5.70549e-06
-1.50302e-07
5.71138e-06
8.45052e-08
5.71681e-06
1.14978e-07
5.73107e-06
1.61081e-07
5.72578e-06
9.15499e-09
5.72229e-06
-4.82913e-08
5.71313e-06
7.41479e-10
5.69838e-06
-3.8609e-08
5.69896e-06
2.01626e-08
5.69516e-06
9.14142e-08
5.68808e-06
9.08803e-08
5.6922e-06
1.16464e-07
5.69643e-06
1.52984e-07
5.6968e-06
1.58303e-07
5.7004e-06
1.56163e-07
1.57167e-07
5.7062e-06
5.99178e-06
-5.19441e-09
5.98784e-06
6.41073e-08
6.00779e-06
1.13755e-07
5.99122e-06
-1.20808e-07
5.97877e-06
-1.3785e-07
5.98562e-06
7.76467e-08
5.99022e-06
1.10385e-07
6.00317e-06
1.48123e-07
5.99865e-06
1.36832e-08
5.99417e-06
-4.38155e-08
5.98545e-06
9.45926e-09
5.97073e-06
-2.3884e-08
5.97048e-06
2.04101e-08
5.96839e-06
9.35044e-08
5.96143e-06
9.78362e-08
5.9644e-06
1.13496e-07
5.96975e-06
1.47638e-07
5.97073e-06
1.57318e-07
5.97358e-06
1.53316e-07
1.51745e-07
5.979e-06
6.27829e-06
-7.99172e-09
6.27433e-06
6.80649e-08
6.29299e-06
9.50917e-08
6.27934e-06
-1.07157e-07
6.26544e-06
-1.23954e-07
6.27267e-06
7.04257e-08
6.27688e-06
1.0617e-07
6.28801e-06
1.36997e-07
6.28385e-06
1.7835e-08
6.2784e-06
-3.83571e-08
6.27034e-06
1.75203e-08
6.25613e-06
-9.67392e-09
6.25516e-06
2.13775e-08
6.25467e-06
9.39967e-08
6.24819e-06
1.04314e-07
6.24982e-06
1.11862e-07
6.25588e-06
1.41575e-07
6.25785e-06
1.55355e-07
6.26004e-06
1.5112e-07
1.46808e-07
6.26498e-06
6.5784e-06
-1.09193e-08
6.57466e-06
7.17971e-08
6.59167e-06
7.80894e-08
6.58094e-06
-9.6429e-08
6.56617e-06
-1.09188e-07
6.57324e-06
6.33561e-08
6.57733e-06
1.02084e-07
6.58633e-06
1.27994e-07
6.58221e-06
2.19611e-08
6.57623e-06
-3.23798e-08
6.56903e-06
2.47204e-08
6.5554e-06
3.95551e-09
6.55364e-06
2.31379e-08
6.55455e-06
9.30859e-08
6.54891e-06
1.09949e-07
6.5492e-06
1.11574e-07
6.55545e-06
1.35327e-07
6.55864e-06
1.52166e-07
6.56046e-06
1.49298e-07
1.42501e-07
6.56477e-06
6.89275e-06
-1.38809e-08
6.88949e-06
7.50599e-08
6.9045e-06
6.30767e-08
6.89654e-06
-8.8465e-08
6.88158e-06
-9.42322e-08
6.88812e-06
5.68192e-08
6.89224e-06
9.79621e-08
6.89917e-06
1.21065e-07
6.89479e-06
2.63447e-08
6.88874e-06
-2.63366e-08
6.88241e-06
3.10582e-08
6.86932e-06
1.70382e-08
6.86658e-06
2.58762e-08
6.86862e-06
9.10504e-08
6.86417e-06
1.14403e-07
6.8633e-06
1.12444e-07
6.86918e-06
1.29439e-07
6.87361e-06
1.4774e-07
6.87548e-06
1.47427e-07
1.38908e-07
6.87907e-06
7.22203e-06
-1.6771e-08
7.21947e-06
7.76204e-08
7.2322e-06
5.03475e-08
7.22681e-06
-8.30766e-08
7.21231e-06
-7.97375e-08
7.21799e-06
5.11374e-08
7.22236e-06
9.35949e-08
7.22748e-06
1.15951e-07
7.22241e-06
3.14072e-08
7.21643e-06
-2.03557e-08
7.21101e-06
3.6479e-08
7.1986e-06
2.94532e-08
7.19476e-06
2.97137e-08
7.19753e-06
8.82815e-08
7.19451e-06
1.1742e-07
7.19283e-06
1.14129e-07
7.19792e-06
1.24349e-07
7.20333e-06
1.42328e-07
7.20568e-06
1.45076e-07
1.35947e-07
7.20864e-06
7.56693e-06
-1.94755e-08
7.56529e-06
7.92564e-08
7.57552e-06
4.01251e-08
7.57242e-06
-7.99802e-08
7.55892e-06
-6.6233e-08
7.5636e-06
4.64579e-08
7.56845e-06
8.87429e-08
7.57195e-06
1.12448e-07
7.5659e-06
3.74546e-08
7.55983e-06
-1.42854e-08
7.55545e-06
4.08606e-08
7.54395e-06
4.09565e-08
7.53894e-06
3.47257e-08
7.54202e-06
8.51998e-08
7.54057e-06
1.18866e-07
7.5385e-06
1.16202e-07
7.54252e-06
1.2033e-07
7.54852e-06
1.36326e-07
7.55163e-06
1.41961e-07
1.33374e-07
7.55421e-06
7.92821e-06
-2.18779e-08
7.92771e-06
7.97645e-08
7.93535e-06
3.24821e-08
7.93414e-06
-7.87736e-08
7.92207e-06
-5.41654e-08
7.92552e-06
4.30163e-08
7.93116e-06
8.31033e-08
7.93334e-06
1.10267e-07
7.92602e-06
4.47732e-08
7.9196e-06
-7.87101e-09
7.91638e-06
4.40862e-08
7.90606e-06
5.12704e-08
7.89997e-06
4.08168e-08
7.9029e-06
8.22705e-08
7.90301e-06
1.18761e-07
7.90098e-06
1.18225e-07
7.90387e-06
1.17448e-07
7.91001e-06
1.30182e-07
7.91398e-06
1.37995e-07
1.30872e-07
7.91648e-06
8.30667e-06
-2.38656e-08
8.30745e-06
7.89813e-08
8.31254e-06
2.73918e-08
8.31266e-06
-7.88912e-08
8.30241e-06
-4.39115e-08
8.30442e-06
4.10051e-08
8.31075e-06
7.67716e-08
8.31215e-06
1.08868e-07
8.30361e-06
5.33073e-08
8.2966e-06
-8.58524e-10
8.29449e-06
4.62009e-08
8.28561e-06
6.01492e-08
8.27874e-06
4.76849e-08
8.28107e-06
7.99405e-08
8.28255e-06
1.17282e-07
8.28099e-06
1.19787e-07
8.28283e-06
1.15609e-07
8.28871e-06
1.24304e-07
8.29343e-06
1.3327e-07
1.28163e-07
8.29614e-06
8.70313e-06
-2.53304e-08
8.70534e-06
7.67634e-08
8.70793e-06
2.48095e-08
8.7087e-06
-7.96684e-08
8.70031e-06
-3.55166e-08
8.70081e-06
4.05021e-08
8.70706e-06
7.05209e-08
8.7085e-06
1.07434e-07
8.69961e-06
6.21966e-08
8.69183e-06
6.91527e-09
8.69053e-06
4.75035e-08
8.68332e-06
6.73624e-08
8.67605e-06
5.49541e-08
8.67747e-06
7.85241e-08
8.68e-06
1.14751e-07
8.67922e-06
1.20564e-07
8.68025e-06
1.14575e-07
8.68555e-06
1.19006e-07
8.69084e-06
1.27985e-07
1.25059e-07
8.69394e-06
9.11847e-06
-2.6184e-08
9.12223e-06
7.3009e-08
9.12246e-06
2.45769e-08
9.12305e-06
-8.0258e-08
9.11591e-06
-2.83746e-08
9.11408e-06
4.23333e-08
9.11899e-06
6.56053e-08
9.12272e-06
1.03703e-07
9.11488e-06
7.0041e-08
9.10641e-06
1.53876e-08
9.10538e-06
4.85309e-08
9.09994e-06
7.27966e-08
9.09268e-06
6.22214e-08
9.0931e-06
7.81021e-08
9.09625e-06
1.116e-07
9.09644e-06
1.20369e-07
9.097e-06
1.14018e-07
9.10151e-06
1.14493e-07
9.10709e-06
1.22408e-07
1.21466e-07
9.11068e-06
9.55365e-06
-2.63727e-08
9.55892e-06
6.77368e-08
9.55726e-06
2.62349e-08
9.55651e-06
-7.95067e-08
9.55075e-06
-2.26125e-08
9.54586e-06
4.72243e-08
9.54948e-06
6.19805e-08
9.55621e-06
9.69771e-08
9.55033e-06
7.59217e-08
9.54126e-06
2.44613e-08
9.54005e-06
4.97365e-08
9.53624e-06
7.66055e-08
9.52944e-06
6.90188e-08
9.52894e-06
7.86047e-08
9.53229e-06
1.08249e-07
9.53347e-06
1.19193e-07
9.53391e-06
1.13579e-07
9.53758e-06
1.10817e-07
9.54316e-06
1.16827e-07
1.17383e-07
9.54725e-06
1.00096e-05
-2.58752e-08
1.00163e-05
6.10835e-08
1.00133e-05
2.92217e-08
1.00104e-05
-7.66517e-08
1.00069e-05
-1.90183e-08
1.00013e-05
5.28067e-08
1.00026e-05
6.06358e-08
1.00104e-05
8.92113e-08
1.00067e-05
7.96391e-08
9.9974e-06
3.37277e-08
9.99557e-06
5.15656e-08
9.99313e-06
7.90431e-08
9.98718e-06
7.49697e-08
9.98595e-06
7.98366e-08
9.98919e-06
1.05012e-07
9.9912e-06
1.17175e-07
9.99183e-06
1.1295e-07
9.99475e-06
1.07901e-07
1.00001e-05
1.11508e-07
1.12888e-07
1.00046e-05
1.04875e-05
-2.47105e-08
1.04952e-05
5.33104e-08
1.04916e-05
3.28969e-08
1.04863e-05
-7.14266e-08
1.04851e-05
-1.77775e-08
1.04802e-05
5.77127e-08
1.0479e-05
6.1852e-08
1.04863e-05
8.19268e-08
1.04847e-05
8.12328e-08
1.04758e-05
4.26277e-08
1.04731e-05
5.42434e-08
1.04716e-05
8.04958e-08
1.04667e-05
7.98904e-08
1.04651e-05
8.14743e-08
1.0468e-05
1.021e-07
1.04707e-05
1.1451e-07
1.04717e-05
1.1192e-07
1.0474e-05
1.05575e-07
1.04789e-05
1.0666e-07
1.08114e-07
1.04836e-05
1.09883e-05
-2.29482e-08
1.09967e-05
4.4836e-08
1.09931e-05
3.65396e-08
1.09855e-05
-6.38246e-08
1.0986e-05
-1.82878e-08
1.09827e-05
6.10278e-08
1.09793e-05
6.52319e-08
1.0985e-05
7.62282e-08
1.09852e-05
8.10171e-08
1.09773e-05
5.05254e-08
1.09739e-05
5.76995e-08
1.09729e-05
8.14746e-08
1.09691e-05
8.37138e-08
1.09673e-05
8.32286e-08
1.09698e-05
9.95755e-08
1.09729e-05
1.11427e-07
1.09745e-05
1.10376e-07
1.09764e-05
1.03613e-07
1.09807e-05
1.02415e-07
1.03223e-07
1.09856e-05
1.15131e-05
-2.07102e-08
1.15218e-05
3.61732e-08
1.15188e-05
3.94893e-08
1.1509e-05
-5.40277e-08
1.15103e-05
-1.95392e-08
1.15092e-05
6.20823e-08
1.15045e-05
7.00011e-08
1.15079e-05
7.27992e-08
1.15093e-05
7.95795e-08
1.15029e-05
5.69482e-08
1.1499e-05
6.1658e-08
1.14981e-05
8.2308e-08
1.14952e-05
8.65935e-08
1.14936e-05
8.48669e-08
1.14958e-05
9.73837e-08
1.14991e-05
1.08136e-07
1.15012e-05
1.08312e-07
1.1503e-05
1.0177e-07
1.15066e-05
9.88073e-08
9.84048e-08
1.15114e-05
1.20633e-05
-1.81592e-08
1.20715e-05
2.79035e-08
1.20698e-05
4.1205e-08
1.20583e-05
-4.24544e-08
1.2059e-05
-2.03234e-08
1.20606e-05
6.05454e-08
1.20554e-05
7.51433e-08
1.20564e-05
7.18253e-08
1.20582e-05
7.77551e-08
1.20535e-05
6.16979e-08
1.20495e-05
6.56278e-08
1.20486e-05
8.31887e-08
1.20465e-05
8.87508e-08
1.2045e-05
8.6289e-08
1.2047e-05
9.54283e-08
1.20504e-05
1.04764e-07
1.20529e-05
1.05808e-07
1.20548e-05
9.98167e-08
1.20579e-05
9.57568e-08
9.38616e-08
1.20624e-05
1.26399e-05
-1.54827e-08
1.26472e-05
2.05994e-08
1.2647e-05
4.14092e-08
1.26343e-05
-2.97004e-08
1.26334e-05
-1.94835e-08
1.26375e-05
5.64424e-08
1.26332e-05
7.94949e-08
1.26319e-05
7.30914e-08
1.26332e-05
7.64309e-08
1.26301e-05
6.48648e-08
1.26266e-05
6.90888e-08
1.26256e-05
8.4148e-08
1.26241e-05
9.03384e-08
1.26229e-05
8.74903e-08
1.26246e-05
9.36783e-08
1.2628e-05
1.0136e-07
1.26308e-05
1.02978e-07
1.2633e-05
9.76095e-08
1.26357e-05
9.30836e-08
8.977e-08
1.26398e-05
1.32443e-05
-1.28718e-08
1.32502e-05
1.47003e-08
1.32515e-05
4.01741e-08
1.32383e-05
-1.65176e-08
1.32352e-05
-1.63641e-08
1.32411e-05
5.04765e-08
1.32386e-05
8.19863e-08
1.32357e-05
7.60067e-08
1.32359e-05
7.6224e-08
1.32339e-05
6.68825e-08
1.32313e-05
7.17194e-08
1.32304e-05
8.49839e-08
1.32293e-05
9.14883e-08
1.32283e-05
8.84543e-08
1.32298e-05
9.21548e-08
1.32332e-05
9.79752e-08
1.32363e-05
9.9894e-08
1.32388e-05
9.51134e-08
1.32414e-05
9.05386e-08
8.62165e-08
1.32449e-05
1.38778e-05
-1.04966e-08
1.38819e-05
1.05645e-08
1.38843e-05
3.77606e-08
1.38717e-05
-3.88649e-09
1.38661e-05
-1.07445e-08
1.38727e-05
4.38525e-08
1.38727e-05
8.19962e-08
1.38691e-05
7.96304e-08
1.38679e-05
7.7364e-08
1.38664e-05
6.84313e-08
1.38647e-05
7.34299e-08
1.38643e-05
8.53997e-08
1.38635e-05
9.22649e-08
1.38628e-05
8.91559e-08
1.38641e-05
9.08356e-08
1.38673e-05
9.47297e-08
1.38706e-05
9.6597e-08
1.38734e-05
9.2384e-08
1.3876e-05
8.79022e-08
8.31292e-08
1.38791e-05
1.45416e-05
-8.47509e-09
1.45437e-05
8.48324e-09
1.4547e-05
3.44868e-08
1.45359e-05
7.19672e-09
1.45281e-05
-2.9622e-09
1.45339e-05
3.80435e-08
1.45365e-05
7.94854e-08
1.45332e-05
8.28956e-08
1.45308e-05
7.97424e-08
1.45291e-05
7.01332e-08
1.45282e-05
7.43829e-08
1.45284e-05
8.51993e-08
1.4528e-05
9.25724e-08
1.45276e-05
8.95908e-08
1.45288e-05
8.96441e-08
1.45318e-05
9.17232e-08
1.45352e-05
9.31757e-08
1.45381e-05
8.94795e-08
1.45409e-05
8.5097e-08
8.02922e-08
1.45438e-05
1.52373e-05
-6.86721e-09
1.52375e-05
8.2565e-09
1.52411e-05
3.09104e-08
1.52321e-05
1.61677e-08
1.52229e-05
6.19435e-09
1.52267e-05
3.4278e-08
1.52312e-05
7.50255e-08
1.52292e-05
8.48635e-08
1.5226e-05
8.29575e-08
1.52238e-05
7.23196e-08
1.52232e-05
7.49797e-08
1.5224e-05
8.44156e-08
1.52244e-05
9.22023e-08
1.52242e-05
8.97605e-08
1.52253e-05
8.84977e-08
1.52281e-05
8.89464e-08
1.52315e-05
8.97637e-08
1.52346e-05
8.64186e-08
1.52375e-05
8.21654e-08
7.7472e-08
1.52403e-05
1.59661e-05
-5.66477e-09
1.59649e-05
9.45703e-09
1.59682e-05
2.76558e-08
1.59616e-05
2.2795e-08
1.59519e-05
1.58107e-08
1.59531e-05
3.30994e-08
1.59584e-05
6.97267e-08
1.59582e-05
8.50366e-08
1.59549e-05
8.62894e-08
1.59522e-05
7.50597e-08
1.59515e-05
7.56467e-08
1.59527e-05
8.3204e-08
1.59538e-05
9.10945e-08
1.59541e-05
8.95118e-08
1.59552e-05
8.73924e-08
1.59578e-05
8.63505e-08
1.59611e-05
8.64501e-08
1.59643e-05
8.32511e-08
1.59673e-05
7.91591e-08
7.45643e-08
1.59702e-05
1.67297e-05
-4.79675e-09
1.67276e-05
1.16044e-08
1.673e-05
2.52339e-08
1.67256e-05
2.7202e-08
1.67164e-05
2.49806e-08
1.67151e-05
3.44054e-08
1.672e-05
6.4818e-08
1.67216e-05
8.34598e-08
1.6719e-05
8.89075e-08
1.67158e-05
7.82373e-08
1.67148e-05
7.6678e-08
1.67162e-05
8.1797e-08
1.67179e-05
8.94138e-08
1.67188e-05
8.86051e-08
1.67199e-05
8.62769e-08
1.67223e-05
8.39105e-08
1.67255e-05
8.32456e-08
1.67287e-05
8.00569e-08
1.67318e-05
7.6101e-08
7.1583e-08
1.67348e-05
1.75297e-05
-4.15227e-09
1.75272e-05
1.40993e-08
1.75285e-05
2.39773e-08
1.75258e-05
2.98845e-08
1.75178e-05
3.29919e-08
1.75145e-05
3.76703e-08
1.75181e-05
6.12771e-08
1.75209e-05
8.06054e-08
1.75196e-05
9.02531e-08
1.75164e-05
8.14533e-08
1.75149e-05
7.81405e-08
1.75162e-05
8.05289e-08
1.75182e-05
8.73214e-08
1.75198e-05
8.7073e-08
1.75212e-05
8.48975e-08
1.75234e-05
8.16487e-08
1.75265e-05
8.01494e-08
1.75297e-05
7.68825e-08
1.75328e-05
7.30213e-08
6.85564e-08
1.75358e-05
1.83678e-05
-3.60595e-09
1.83654e-05
1.65484e-08
1.83654e-05
2.3969e-08
1.83638e-05
3.14052e-08
1.83574e-05
3.94177e-08
1.8353e-05
4.21324e-08
1.83546e-05
5.95853e-08
1.8358e-05
7.72107e-08
1.83581e-05
9.02269e-08
1.83554e-05
8.41534e-08
1.83536e-05
7.98944e-08
1.83544e-05
7.96922e-08
1.83568e-05
8.49739e-08
1.83588e-05
8.5096e-08
1.83606e-05
8.3116e-08
1.83628e-05
7.9426e-08
1.83657e-05
7.7189e-08
1.83689e-05
7.37299e-08
1.8372e-05
6.9945e-08
6.5502e-08
1.8375e-05
1.92458e-05
-3.04597e-09
1.92437e-05
1.86891e-08
1.92426e-05
2.50644e-08
1.92416e-05
3.23994e-08
1.92368e-05
4.41696e-08
1.9232e-05
4.69553e-08
1.92319e-05
5.96782e-08
1.9235e-05
7.41364e-08
1.92362e-05
8.90265e-08
1.92344e-05
8.59176e-08
1.92326e-05
8.16988e-08
1.9233e-05