/*--------------------------------*- C++ -*----------------------------------*\
| =========                 |                                                 |
| \\      /  F ield         | OpenFOAM: The Open Source CFD Toolbox           |
|  \\    /   O peration     | Version:  3.0.1                                 |
|   \\  /    A nd           | Web:      www.OpenFOAM.org                      |
|    \\/     M anipulation  |                                                 |
\*---------------------------------------------------------------------------*/
FoamFile
{
    version     2.0;
    format      ascii;
    class       volVectorField;
    location    "1.8";
    object      U;
}
// * * * * * * * * * * * * * * * * * * * * * * * * * * * * * * * * * * * * * //

dimensions      [0 1 -1 0 0 0 0];

internalField   nonuniform List<vector> 
9600
(
(0.844366 6.86157e-06 0)
(1.16861 0.00188031 0)
(0.864393 0.00404625 0)
(1.09037 -0.00859316 0)
(0.858114 -0.00216073 0)
(1.19633 0.00159822 0)
(0.81247 0.00316872 0)
(1.11874 0.0095903 0)
(0.864233 -0.00194481 0)
(1.08007 -0.00200583 0)
(0.885336 -0.00703353 0)
(1.10365 -0.00612695 0)
(0.887638 0.00416148 0)
(1.11093 -0.00670407 0)
(0.858213 0.00404126 0)
(1.12087 0.00148793 0)
(0.835032 0.00496555 0)
(1.11215 0.00657226 0)
(0.829813 0.00779789 0)
(1.09746 0.00700518 0)
(0.854199 -0.000205137 0)
(1.15687 0.00189458 0)
(0.876944 0.00450472 0)
(1.07784 -0.00828388 0)
(0.867858 -0.00361281 0)
(1.18065 0.00228902 0)
(0.832458 0.00385767 0)
(1.0985 0.00929159 0)
(0.891417 -0.0016283 0)
(1.06051 -0.00208788 0)
(0.912424 -0.00764546 0)
(1.07923 -0.00595012 0)
(0.917915 0.0037262 0)
(1.0776 -0.00579048 0)
(0.898984 0.00348203 0)
(1.07092 0.0023837 0)
(0.901006 0.00541981 0)
(1.03484 0.00614589 0)
(0.930491 0.00951424 0)
(0.979665 0.0056673 0)
(0.873491 -0.000337776 0)
(1.13375 0.00191829 0)
(0.899362 0.00497732 0)
(1.05933 -0.00812584 0)
(0.888416 -0.00462086 0)
(1.15015 0.00286117 0)
(0.870458 0.00454199 0)
(1.06353 0.00879887 0)
(0.927742 -0.0013317 0)
(1.03244 -0.00231917 0)
(0.946444 -0.00797485 0)
(1.04426 -0.00594255 0)
(0.95658 0.00362397 0)
(1.03941 -0.00534432 0)
(0.947093 0.00351566 0)
(1.02327 0.00241294 0)
(0.956464 0.00602809 0)
(0.98908 0.00574337 0)
(0.969533 0.0103594 0)
(0.964854 0.00644321 0)
(0.899338 -0.000432103 0)
(1.10305 0.00186956 0)
(0.926422 0.00538535 0)
(1.03969 -0.00794727 0)
(0.91562 -0.00543552 0)
(1.11113 0.00308585 0)
(0.914146 0.00528204 0)
(1.02833 0.00831174 0)
(0.959014 -0.00110446 0)
(1.00952 -0.00254138 0)
(0.971939 -0.00808953 0)
(1.01624 -0.00609584 0)
(0.982018 0.00363909 0)
(1.01555 -0.00515241 0)
(0.97553 0.00386204 0)
(1.00089 0.00223356 0)
(0.979572 0.00669583 0)
(0.980152 0.00571154 0)
(0.976385 0.0106561 0)
(0.972724 0.00750438 0)
(0.927233 -0.000480082 0)
(1.07056 0.00177022 0)
(0.952445 0.00574392 0)
(1.02346 -0.00778105 0)
(0.942718 -0.00606268 0)
(1.07241 0.00308547 0)
(0.951124 0.00606529 0)
(1.00447 0.00794146 0)
(0.979488 -0.000977505 0)
(0.997838 -0.0027086 0)
(0.985826 -0.00812754 0)
(1.00134 -0.00625809 0)
(0.992368 0.0035755 0)
(1.00576 -0.00497317 0)
(0.986733 0.00413704 0)
(0.994208 0.00221837 0)
(0.98587 0.00716949 0)
(0.981132 0.00586678 0)
(0.978194 0.0108709 0)
(0.976487 0.00832878 0)
(0.952659 -0.000484366 0)
(1.04203 0.00165902 0)
(0.973269 0.00600853 0)
(1.01305 -0.00765334 0)
(0.964457 -0.0064584 0)
(1.04101 0.00298304 0)
(0.97565 0.00672142 0)
(0.994273 0.00771834 0)
(0.990974 -0.000947253 0)
(0.995013 -0.00282078 0)
(0.99243 -0.0080976 0)
(0.99581 -0.00636787 0)
(0.994828 0.00344743 0)
(1.00273 -0.00481556 0)
(0.990208 0.00432169 0)
(0.992957 0.00235634 0)
(0.987454 0.00741003 0)
(0.982649 0.0061637 0)
(0.980152 0.0109879 0)
(0.978657 0.00900009 0)
(0.972566 -0.000458087 0)
(1.02102 0.00155876 0)
(0.987412 0.00614958 0)
(1.00812 -0.00754811 0)
(0.979118 -0.00663785 0)
(1.01947 0.00283825 0)
(0.988616 0.00716036 0)
(0.993193 0.00760003 0)
(0.997454 -0.000963403 0)
(0.996318 -0.00288767 0)
(0.99585 -0.00800072 0)
(0.994526 -0.00642194 0)
(0.994865 0.0032954 0)
(1.00148 -0.00470267 0)
(0.991229 0.00449572 0)
(0.993131 0.0025205 0)
(0.988591 0.00755795 0)
(0.984352 0.00654759 0)
(0.982687 0.0109468 0)
(0.981509 0.0096271 0)
(0.986033 -0.000418805 0)
(1.00804 0.00148134 0)
(0.995712 0.00617941 0)
(1.00663 -0.00745322 0)
(0.987792 -0.00665257 0)
(1.00651 0.00269217 0)
(0.99396 0.00739326 0)
(0.995698 0.00751506 0)
(1.00154 -0.000983088 0)
(0.998619 -0.00292224 0)
(0.997947 -0.00784754 0)
(0.994536 -0.00642447 0)
(0.994569 0.00314799 0)
(1.00017 -0.00459843 0)
(0.991491 0.00463477 0)
(0.99344 0.00267911 0)
(0.989978 0.00765684 0)
(0.986423 0.00693825 0)
(0.985671 0.0107954 0)
(0.984987 0.0102466 0)
(0.993901 -0.000379831 0)
(1.00137 0.00142734 0)
(1.00004 0.00613103 0)
(1.0065 -0.00736518 0)
(0.992506 -0.00655455 0)
(0.999401 0.00256874 0)
(0.995509 0.00747019 0)
(0.998525 0.00741433 0)
(1.00426 -0.000991158 0)
(1.00061 -0.0029339 0)
(0.999332 -0.00764373 0)
(0.994738 -0.00638857 0)
(0.994361 0.00302715 0)
(0.998616 -0.00448127 0)
(0.991405 0.00470546 0)
(0.9935 0.00284582 0)
(0.99131 0.00766341 0)
(0.988497 0.00731446 0)
(0.988614 0.0105802 0)
(0.988422 0.0108262 0)
(0.997834 -0.000346748 0)
(0.998559 0.00138898 0)
(1.00217 0.00603872 0)
(1.00653 -0.0072798 0)
(0.994918 -0.00638725 0)
(0.995772 0.00247002 0)
(0.995704 0.00744319 0)
(1.00061 0.00728242 0)
(1.006 -0.00098647 0)
(1.00195 -0.00292785 0)
(1.00022 -0.00739979 0)
(0.994894 -0.00632309 0)
(0.994236 0.00293919 0)
(0.997166 -0.00434291 0)
(0.991161 0.00470693 0)
(0.993346 0.00302551 0)
(0.992316 0.00755354 0)
(0.990211 0.00768328 0)
(0.99106 0.0103155 0)
(0.99129 0.0113148 0)
(0.999456 -0.000319374 0)
(0.997668 0.00135644 0)
(1.00323 0.00592805 0)
(1.00635 -0.00719275 0)
(0.996028 -0.00617972 0)
(0.994086 0.00238809 0)
(0.995694 0.00735305 0)
(1.00195 0.00712293 0)
(1.00702 -0.000970275 0)
(1.00269 -0.00290865 0)
(1.00072 -0.00712729 0)
(0.995015 -0.0062341 0)
(0.994176 0.0028755 0)
(0.99609 -0.00417704 0)
(0.990942 0.00464888 0)
(0.993152 0.00321418 0)
(0.992987 0.00734528 0)
(0.991444 0.00804203 0)
(0.992845 0.0100234 0)
(0.993405 0.0116817 0)
(0.999929 -0.000295082 0)
(0.997536 0.00132214 0)
(1.00383 0.0058126 0)
(1.00603 -0.00709825 0)
(0.996393 -0.00595474 0)
(0.993451 0.00231162 0)
(0.995844 0.00722579 0)
(1.00276 0.00694532 0)
(1.00758 -0.000944471 0)
(1.00298 -0.00287808 0)
(1.00094 -0.00683685 0)
(0.99513 -0.00612635 0)
(0.994177 0.00282064 0)
(0.995453 -0.00397916 0)
(0.990871 0.00453668 0)
(0.99305 0.00341943 0)
(0.993451 0.00706584 0)
(0.992273 0.00837685 0)
(0.994048 0.00974319 0)
(0.99484 0.0119142 0)
(0.999931 -0.000271571 0)
(0.997626 0.00128242 0)
(1.00421 0.00569737 0)
(1.00569 -0.00699243 0)
(0.99637 -0.00572326 0)
(0.993339 0.00223257 0)
(0.996166 0.00707579 0)
(1.00324 0.00675938 0)
(1.00784 -0.000910198 0)
(1.00302 -0.00283594 0)
(1.00097 -0.00653726 0)
(0.995252 -0.00600321 0)
(0.994231 0.00276094 0)
(0.995173 -0.00374536 0)
(0.990984 0.0043741 0)
(0.993077 0.00364988 0)
(0.993832 0.00674173 0)
(0.992829 0.00867242 0)
(0.994836 0.00951617 0)
(0.995777 0.0120082 0)
(0.999801 -0.000247403 0)
(0.997737 0.00123625 0)
(1.00447 0.00558249 0)
(1.00541 -0.00687288 0)
(0.996208 -0.00549077 0)
(0.993445 0.00214607 0)
(0.996566 0.00691049 0)
(1.0035 0.00657222 0)
(1.00793 -0.000870075 0)
(1.00293 -0.00278068 0)
(1.0009 -0.00623592 0)
(0.995389 -0.00586599 0)
(0.994324 0.00268829 0)
(0.995117 -0.00347806 0)
(0.991241 0.00417024 0)
(0.993199 0.00390109 0)
(0.994189 0.00640406 0)
(0.993221 0.0089137 0)
(0.995358 0.00936964 0)
(0.996395 0.0119699 0)
(0.999684 -0.000221986 0)
(0.997814 0.00118402 0)
(1.00465 0.0054666 0)
(1.00517 -0.00673941 0)
(0.996067 -0.00525966 0)
(0.993613 0.00205164 0)
(0.996951 0.00673292 0)
(1.0036 0.00638835 0)
(1.00792 -0.000827842 0)
(1.0028 -0.00271127 0)
(1.0008 -0.00593729 0)
(0.995548 -0.00571462 0)
(0.994439 0.00259697 0)
(0.99517 -0.00318332 0)
(0.99158 0.00393467 0)
(0.993361 0.00416521 0)
(0.99453 0.00608631 0)
(0.993516 0.00908549 0)
(0.995712 0.00930791 0)
(0.996823 0.0118213 0)
(0.999626 -0.000195394 0)
(0.997859 0.00112707 0)
(1.00473 0.00534823 0)
(1.00497 -0.00659279 0)
(0.996017 -0.00503155 0)
(0.993785 0.00195216 0)
(0.997269 0.00654343 0)
(1.00358 0.0062105 0)
(1.00785 -0.000787847 0)
(1.00265 -0.00262709 0)
(1.00072 -0.00564433 0)
(0.995731 -0.0055474 0)
(0.994562 0.00248273 0)
(0.995259 -0.00286427 0)
(0.991947 0.00367931 0)
(0.993523 0.00442803 0)
(0.994848 0.00580848 0)
(0.993757 0.00918238 0)
(0.995958 0.00932359 0)
(0.997146 0.0116002 0)
(0.999621 -0.000168115 0)
(0.997888 0.00106733 0)
(1.00475 0.00522601 0)
(1.00479 -0.00643459 0)
(0.996063 -0.00480601 0)
(0.993955 0.00185266 0)
(0.997505 0.00634161 0)
(1.00349 0.00604026 0)
(1.00772 -0.00075454 0)
(1.0025 -0.00252726 0)
(1.00064 -0.00535962 0)
(0.995939 -0.00536472 0)
(0.994686 0.00234917 0)
(0.995349 -0.00252637 0)
(0.992311 0.00341674 0)
(0.993668 0.00467389 0)
(0.995138 0.00558098 0)
(0.993973 0.00920908 0)
(0.996138 0.0093973 0)
(0.997415 0.0113399 0)
(0.999649 -0.000140653 0)
(0.997922 0.00100623 0)
(1.00471 0.00509948 0)
(1.00461 -0.0062666 0)
(0.996177 -0.00458379 0)
(0.994133 0.00175714 0)
(0.997674 0.00612789 0)
(1.00335 0.00587799 0)
(1.00756 -0.000729121 0)
(1.00236 -0.00241491 0)
(1.00058 -0.00508274 0)
(0.996169 -0.00516855 0)
(0.994806 0.00220536 0)
(0.995428 -0.00217943 0)
(0.99266 0.00316083 0)
(0.9938 0.00489092 0)
(0.9954 0.00541227 0)
(0.994189 0.00917344 0)
(0.996275 0.00949927 0)
(0.997662 0.0110592 0)
(0.999685 -0.000113482 0)
(0.997972 0.000945 0)
(1.00462 0.004968 0)
(1.00444 -0.00608907 0)
(0.996322 -0.00436786 0)
(0.994332 0.00166935 0)
(0.997795 0.00590097 0)
(1.00319 0.00572598 0)
(1.00737 -0.000714181 0)
(1.00223 -0.00229088 0)
(1.00052 -0.0048135 0)
(0.996415 -0.00495988 0)
(0.994921 0.00205451 0)
(0.995499 -0.00183013 0)
(0.992992 0.00292911 0)
(0.99393 0.00507113 0)
(0.995639 0.00529936 0)
(0.994421 0.00908497 0)
(0.996389 0.00961024 0)
(0.9979 0.0107783 0)
(0.99971 -8.71099e-05 0)
(0.998049 0.00088487 0)
(1.00451 0.00483058 0)
(1.00429 -0.00590137 0)
(0.996469 -0.00416014 0)
(0.994556 0.00159332 0)
(0.997887 0.00565828 0)
(1.00302 0.00558612 0)
(1.00716 -0.000711209 0)
(1.00211 -0.00215559 0)
(1.00044 -0.00454918 0)
(0.996675 -0.0047459 0)
(0.995031 0.00190845 0)
(0.995569 -0.00148934 0)
(0.993309 0.00272668 0)
(0.994068 0.00521908 0)
(0.995861 0.00523341 0)
(0.994681 0.00895412 0)
(0.996489 0.0097221 0)
(0.998133 0.010516 0)
(0.999714 -6.19536e-05 0)
(0.998154 0.000826507 0)
(1.00436 0.00468679 0)
(1.00416 -0.00570289 0)
(0.996602 -0.00396297 0)
(0.994805 0.00153038 0)
(0.997961 0.00540129 0)
(1.00286 0.00545465 0)
(1.00693 -0.000715826 0)
(1.00201 -0.00201337 0)
(1.00034 -0.00428625 0)
(0.996945 -0.00453134 0)
(0.995135 0.00177703 0)
(0.995642 -0.00116561 0)
(0.993616 0.00254877 0)
(0.994222 0.00534336 0)
(0.996066 0.00520352 0)
(0.99497 0.00878385 0)
(0.996583 0.00982319 0)
(0.998358 0.0102821 0)
(0.999692 -3.82095e-05 0)
(0.998289 0.000770357 0)
(1.00419 0.00453615 0)
(1.00406 -0.00549357 0)
(0.996715 -0.00377634 0)
(0.995073 0.00148187 0)
(0.998022 0.00513047 0)
(1.00272 0.00533285 0)
(1.00669 -0.00072926 0)
(1.00193 -0.0018664 0)
(1.00023 -0.00401935 0)
(0.997221 -0.00432151 0)
(0.995237 0.00166276 0)
(0.995718 -0.000852531 0)
(0.993918 0.00239392 0)
(0.994393 0.0054461 0)
(0.996258 0.00520314 0)
(0.995288 0.00857618 0)
(0.996675 0.0099034 0)
(0.998566 0.0100853 0)
(0.999647 -1.63885e-05 0)
(0.998447 0.000717633 0)
(1.004 0.0043768 0)
(1.00398 -0.00527086 0)
(0.996811 -0.00360314 0)
(0.995353 0.00144966 0)
(0.998077 0.00484674 0)
(1.00259 0.00521935 0)
(1.00643 -0.000748326 0)
(1.00186 -0.00172038 0)
(1.0001 -0.00374279 0)
(0.997497 -0.00412708 0)
(0.995343 0.0015653 0)
(0.995792 -0.000547854 0)
(0.994217 0.00226101 0)
(0.994581 0.00552781 0)
(0.996435 0.00523608 0)
(0.995629 0.00833555 0)
(0.996775 0.00995506 0)
(0.998751 0.00993333 0)
(0.999587 3.19576e-06 0)
(0.998621 0.000669369 0)
(1.00379 0.00420742 0)
(1.0039 -0.00503422 0)
(0.996901 -0.00344507 0)
(0.995635 0.00143147 0)
(0.998132 0.00455285 0)
(1.00247 0.00511042 0)
(1.00616 -0.000762881 0)
(1.0018 -0.00158464 0)
(0.999966 -0.00344988 0)
(0.997768 -0.00394905 0)
(0.995463 0.00148214 0)
(0.99586 -0.000252686 0)
(0.99452 0.00214303 0)
(0.994782 0.00558478 0)
(0.996599 0.00530803 0)
(0.995986 0.00806803 0)
(0.996888 0.00996372 0)
(0.998903 0.00982565 0)
(0.999523 2.01353e-05 0)
(0.998799 0.000626513 0)
(1.00359 0.00402864 0)
(1.00383 -0.00478557 0)
(0.996995 -0.00329998 0)
(0.995908 0.00142672 0)
(0.998192 0.004249 0)
(1.00235 0.00500677 0)
(1.0059 -0.000772667 0)
(1.00175 -0.00146506 0)
(0.999833 -0.00313641 0)
(0.998029 -0.00377575 0)
(0.995604 0.00141032 0)
(0.995921 3.51941e-05 0)
(0.994828 0.00203563 0)
(0.995 0.00561324 0)
(0.99675 0.00542 0)
(0.99635 0.00778421 0)
(0.997023 0.00991417 0)
(0.99902 0.00976224 0)
(0.999466 3.40305e-05 0)
(0.99897 0.000589188 0)
(1.00338 0.00383917 0)
(1.00375 -0.00452119 0)
(0.997104 -0.00317017 0)
(0.996165 0.00143379 0)
(0.998263 0.00394215 0)
(1.00223 0.0049008 0)
(1.00564 -0.00077292 0)
(1.00171 -0.00136674 0)
(0.999709 -0.00280217 0)
(0.998275 -0.0036074 0)
(0.995773 0.00133738 0)
(0.995973 0.000330566 0)
(0.995143 0.00194365 0)
(0.995236 0.00560978 0)
(0.996891 0.00556758 0)
(0.996712 0.00750009 0)
(0.997189 0.0097933 0)
(0.999104 0.00974391 0)
(0.999422 4.51105e-05 0)
(0.999126 0.000558258 0)
(1.00319 0.00363852 0)
(1.00364 -0.00424249 0)
(0.997232 -0.00305309 0)
(0.996405 0.00144994 0)
(0.998345 0.00363541 0)
(1.0021 0.00478379 0)
(1.00539 -0.000749676 0)
(1.00166 -0.00129953 0)
(0.999596 -0.00245418 0)
(0.998503 -0.00343838 0)
(0.995972 0.00125399 0)
(0.996021 0.000642997 0)
(0.995463 0.00187697 0)
(0.995495 0.00556699 0)
(0.997022 0.00573989 0)
(0.997063 0.00723754 0)
(0.997393 0.00958667 0)
(0.999161 0.00975815 0)
(0.999397 5.21307e-05 0)
(0.999262 0.000535792 0)
(1.00302 0.00342689 0)
(1.00351 -0.00395294 0)
(0.997378 -0.00294459 0)
(0.996627 0.00147555 0)
(0.998437 0.00333458 0)
(1.00197 0.00465026 0)
(1.00515 -0.000696394 0)
(1.00162 -0.001259 0)
(0.999495 -0.00210069 0)
(0.998712 -0.00325363 0)
(0.996203 0.00115781 0)
(0.99607 0.000962687 0)
(0.995781 0.00184433 0)
(0.995781 0.00547855 0)
(0.997149 0.00592249 0)
(0.997393 0.00702424 0)
(0.997636 0.00929471 0)
(0.999208 0.00976722 0)
(0.99939 5.52069e-05 0)
(0.999378 0.000522463 0)
(1.00286 0.00320235 0)
(1.00337 -0.00365282 0)
(0.997538 -0.00284814 0)
(0.996837 0.00150143 0)
(0.998537 0.0030487 0)
(1.00183 0.00449534 0)
(1.00491 -0.000615055 0)
(1.00158 -0.00123694 0)
(0.999404 -0.00174625 0)
(0.998901 -0.00304153 0)
(0.996462 0.00104966 0)
(0.996127 0.00128328 0)
(0.996091 0.00185832 0)
(0.996097 0.00534567 0)
(0.997279 0.00609385 0)
(0.997691 0.00687425 0)
(0.997914 0.00894009 0)
(0.999267 0.009719 0)
(0.999397 5.48726e-05 0)
(0.999477 0.000518579 0)
(1.00272 0.00296584 0)
(1.00321 -0.00334691 0)
(0.997705 -0.00275565 0)
(0.997039 0.00152081 0)
(0.998642 0.00278406 0)
(1.0017 0.00430822 0)
(1.00468 -0.000506227 0)
(1.00155 -0.00123058 0)
(0.999323 -0.00140796 0)
(0.999069 -0.00279689 0)
(0.996744 0.000936953 0)
(0.996198 0.00159437 0)
(0.996386 0.00192406 0)
(0.99644 0.00517569 0)
(0.99742 0.00623379 0)
(0.997954 0.0067883 0)
(0.998215 0.00856031 0)
(0.99936 0.00957053 0)
(0.999415 4.91424e-05 0)
(0.999562 0.000525544 0)
(1.00259 0.00272131 0)
(1.00305 -0.0030381 0)
(0.997873 -0.0026655 0)
(0.997235 0.00153103 0)
(0.998749 0.00254995 0)
(1.00157 0.00408973 0)
(1.00444 -0.000376811 0)
(1.00152 -0.00122905 0)
(0.999254 -0.00109227 0)
(0.999218 -0.00252304 0)
(0.997044 0.000824602 0)
(0.996288 0.00188499 0)
(0.996661 0.0020416 0)
(0.996805 0.00498164 0)
(0.997581 0.00632525 0)
(0.998179 0.00675681 0)
(0.998518 0.00820013 0)
(0.999499 0.0093131 0)
(0.999439 3.96444e-05 0)
(0.999635 0.000541161 0)
(1.00248 0.00247039 0)
(1.00289 -0.00273168 0)
(0.998037 -0.00257391 0)
(0.997427 0.00152163 0)
(0.998855 0.00235289 0)
(1.00145 0.00384623 0)
(1.00421 -0.000238256 0)
(1.0015 -0.00121947 0)
(0.999197 -0.000803559 0)
(0.999346 -0.00221998 0)
(0.997358 0.000722553 0)
(0.996402 0.00214639 0)
(0.996912 0.00220206 0)
(0.997183 0.00477617 0)
(0.997769 0.00635513 0)
(0.998373 0.00676063 0)
(0.998807 0.00789801 0)
(0.999681 0.00898578 0)
(0.999466 2.60411e-05 0)
(0.999699 0.000565645 0)
(1.00237 0.00221448 0)
(1.00273 -0.00243235 0)
(0.998196 -0.00246811 0)
(0.997617 0.00148869 0)
(0.998958 0.00219488 0)
(1.00133 0.00358101 0)
(1.00398 -0.0001008 0)
(1.00149 -0.00119008 0)
(0.999154 -0.000543593 0)
(0.999456 -0.0018901 0)
(0.997681 0.000641322 0)
(0.996541 0.00237872 0)
(0.997137 0.00239754 0)
(0.997566 0.00457434 0)
(0.997989 0.00632363 0)
(0.998547 0.00677482 0)
(0.999068 0.00765994 0)
(0.99989 0.00864072 0)
(0.999495 7.73165e-06 0)
(0.999755 0.000599511 0)
(1.00227 0.00195725 0)
(1.00257 -0.00214655 0)
(0.998348 -0.00234559 0)
(0.997803 0.00142811 0)
(0.999057 0.0020705 0)
(1.00123 0.00330795 0)
(1.00375 2.47571e-05 0)
(1.00148 -0.00114186 0)
(0.999127 -0.00030496 0)
(0.999548 -0.00154016 0)
(0.998012 0.000581805 0)
(0.996707 0.00257727 0)
(0.997337 0.00261996 0)
(0.997944 0.00438269 0)
(0.998242 0.00623505 0)
(0.998712 0.00678162 0)
(0.9993 0.00746761 0)
(1.00011 0.00831985 0)
(0.999525 -1.39344e-05 0)
(0.999803 0.000638886 0)
(1.00218 0.00170711 0)
(1.00242 -0.00188587 0)
(0.998493 -0.00220128 0)
(0.997988 0.00134194 0)
(0.999151 0.00197213 0)
(1.00113 0.00304026 0)
(1.00353 0.000137631 0)
(1.00148 -0.0010757 0)
(0.999119 -8.31759e-05 0)
(0.999623 -0.00117138 0)
(0.998346 0.000551571 0)
(0.996905 0.00273166 0)
(0.997511 0.00286019 0)
(0.998308 0.00420924 0)
(0.998529 0.00609034 0)
(0.998876 0.00677727 0)
(0.999505 0.00730139 0)
(1.00032 0.0080352 0)
(0.999555 -3.9187e-05 0)
(0.999844 0.000683368 0)
(1.00208 0.00146304 0)
(1.00228 -0.00165562 0)
(0.998629 -0.0020315 0)
(0.998169 0.0012401 0)
(0.999239 0.00189062 0)
(1.00103 0.00279435 0)
(1.00332 0.000230918 0)
(1.00149 -0.000990251 0)
(0.999131 0.000120799 0)
(0.999683 -0.000791778 0)
(0.998677 0.000553178 0)
(0.997135 0.00283525 0)
(0.997666 0.00310827 0)
(0.998648 0.00407157 0)
(0.998848 0.00589161 0)
(0.99905 0.00675668 0)
(0.999685 0.00715811 0)
(1.00052 0.00776987 0)
(0.999585 -6.65154e-05 0)
(0.999877 0.000728431 0)
(1.00199 0.00123056 0)
(1.00215 -0.00146235 0)
(0.998757 -0.00184152 0)
(0.998346 0.0011292 0)
(0.999324 0.00181887 0)
(1.00095 0.00258049 0)
(1.00311 0.000307766 0)
(1.00151 -0.000883975 0)
(0.999163 0.000311096 0)
(0.999729 -0.000423142 0)
(0.998998 0.00056768 0)
(0.997398 0.00287744 0)
(0.997807 0.00334729 0)
(0.998955 0.00398318 0)
(0.999195 0.0056485 0)
(0.999244 0.00670377 0)
(0.999841 0.00704854 0)
(1.0007 0.00751048 0)
(0.999614 -9.55892e-05 0)
(0.999904 0.000770999 0)
(1.0019 0.00101832 0)
(1.00202 -0.00130673 0)
(0.998876 -0.00163898 0)
(0.998517 0.00101845 0)
(0.999406 0.00174907 0)
(1.00086 0.00240203 0)
(1.00292 0.000387778 0)
(1.00153 -0.000762448 0)
(0.999216 0.000499637 0)
(0.999761 -6.98135e-05 0)
(0.999304 0.000596937 0)
(0.997696 0.00286291 0)
(0.997945 0.00356405 0)
(0.999221 0.00395414 0)
(0.999559 0.00538055 0)
(0.999469 0.00659263 0)
(0.999978 0.00696966 0)
(1.00087 0.00726489 0)
(0.999642 -0.000125852 0)
(0.999923 0.000810487 0)
(1.00181 0.000827753 0)
(1.00191 -0.00119041 0)
(0.998986 -0.00142637 0)
(0.998681 0.000914278 0)
(0.999488 0.00167894 0)
(1.00078 0.00226141 0)
(1.00273 0.000473377 0)
(1.00156 -0.000637394 0)
(0.999289 0.00067141 0)
(0.999781 0.000272876 0)
(0.999587 0.000652767 0)
(0.998024 0.00280205 0)
(0.998093 0.00374247 0)
(0.999442 0.00398316 0)
(0.999924 0.00512231 0)
(0.999735 0.00641504 0)
(1.00011 0.00690471 0)
(1.001 0.00706393 0)
(0.99967 -0.000155694 0)
(0.999935 0.000843164 0)
(1.00171 0.000663407 0)
(1.0018 -0.00110907 0)
(0.999091 -0.00121756 0)
(0.998836 0.000820247 0)
(0.99957 0.00160711 0)
(1.00071 0.00215469 0)
(1.00255 0.000564673 0)
(1.0016 -0.000509858 0)
(0.999384 0.000814026 0)
(0.999792 0.000605392 0)
(0.999842 0.000740872 0)
(0.998377 0.00270689 0)
(0.998262 0.0038673 0)
(0.999622 0.00405322 0)
(1.00027 0.00490334 0)
(1.00004 0.00618377 0)
(1.00025 0.00682065 0)
(1.0011 0.00691697 0)
(0.999697 -0.000183716 0)
(0.999942 0.000866027 0)
(1.00161 0.000527829 0)
(1.00171 -0.00105677 0)
(0.999189 -0.00101959 0)
(0.998982 0.000740018 0)
(0.999655 0.00153036 0)
(1.00064 0.00208099 0)
(1.00238 0.000672391 0)
(1.00164 -0.000381525 0)
(0.999501 0.000927475 0)
(0.999799 0.000921924 0)
(1.00006 0.000868703 0)
(0.998745 0.00260023 0)
(0.998461 0.003933 0)
(0.99977 0.00414046 0)
(1.00059 0.00473324 0)
(1.00038 0.00592241 0)
(1.00041 0.00669269 0)
(1.00118 0.00680172 0)
(0.999722 -0.000210536 0)
(0.999943 0.000879075 0)
(1.00151 0.000423268 0)
(1.00163 -0.00103301 0)
(0.999284 -0.000836483 0)
(0.999118 0.000675793 0)
(0.999743 0.00143857 0)
(1.00058 0.00203516 0)
(1.0022 0.000807132 0)
(1.00167 -0.000248255 0)
(0.999639 0.00100922 0)
(0.99981 0.00121088 0)
(1.00025 0.00103236 0)
(0.999119 0.00249677 0)
(0.998692 0.00393948 0)
(0.999898 0.00422499 0)
(1.00087 0.00461222 0)
(1.00073 0.00565611 0)
(1.00061 0.00652163 0)
(1.00125 0.00669281 0)
(0.999747 -0.000231817 0)
(0.99994 0.000876188 0)
(1.0014 0.000349968 0)
(1.00155 -0.00102816 0)
(0.999376 -0.000680177 0)
(0.999241 0.000633603 0)
(0.999836 0.00132856 0)
(1.00054 0.00200424 0)
(1.00204 0.000969431 0)
(1.0017 -0.00010058 0)
(0.999796 0.00105995 0)
(0.99983 0.00146098 0)
(1.0004 0.0012288 0)
(0.999485 0.00241259 0)
(0.998956 0.00389409 0)
(1.00002 0.00429098 0)
(1.0011 0.00452985 0)
(1.00108 0.00539514 0)
(1.00085 0.00631099 0)
(1.00133 0.00657171 0)
(0.999769 -0.000250117 0)
(0.999934 0.000862093 0)
(1.00129 0.000303885 0)
(1.00148 -0.00103268 0)
(0.999469 -0.000552569 0)
(0.999351 0.000619336 0)
(0.999932 0.0012107 0)
(1.00051 0.00196927 0)
(1.00187 0.00115565 0)
(1.00172 6.03641e-05 0)
(0.999966 0.00108429 0)
(0.999869 0.00166186 0)
(1.00052 0.00144602 0)
(0.999833 0.00236399 0)
(0.999249 0.00381275 0)
(1.00014 0.00433029 0)
(1.00129 0.00447977 0)
(1.00142 0.00515179 0)
(1.00113 0.0060699 0)
(1.00143 0.00643171 0)
(0.999791 -0.000261768 0)
(0.999926 0.000827431 0)
(1.00117 0.000291666 0)
(1.00141 -0.00104698 0)
(0.999565 -0.00044123 0)
(0.999448 0.000633161 0)
(1.00003 0.00110248 0)
(1.00051 0.00191378 0)
(1.00172 0.00133606 0)
(1.00172 0.000242439 0)
(1.00014 0.00110397 0)
(0.99993 0.00181395 0)
(1.00062 0.00166089 0)
(1.00015 0.00235298 0)
(0.999562 0.00371233 0)
(1.00028 0.00433625 0)
(1.00145 0.00445448 0)
(1.00173 0.00493676 0)
(1.00143 0.0058054 0)
(1.00155 0.00626172 0)
(0.99981 -0.000266277 0)
(0.999919 0.000775209 0)
(1.00105 0.000302346 0)
(1.00135 -0.00104994 0)
(0.999666 -0.000350493 0)
(0.999533 0.000690492 0)
(1.00012 0.00103377 0)
(1.00053 0.00181452 0)
(1.00157 0.00147479 0)
(1.00169 0.000442097 0)
(1.00032 0.00112876 0)
(1.00001 0.0019141 0)
(1.0007 0.00185601 0)
(1.00044 0.00237243 0)
(0.999885 0.00360953 0)
(1.00043 0.00430782 0)
(1.00157 0.00444125 0)
(1.00201 0.00475874 0)
(1.00175 0.00553065 0)
(1.00172 0.00605678 0)
(0.999828 -0.000265829 0)
(0.999913 0.000710718 0)
(1.00092 0.000330782 0)
(1.00128 -0.00102639 0)
(0.999776 -0.000289223 0)
(0.999611 0.000783289 0)
(1.0002 0.00100582 0)
(1.00056 0.00166976 0)
(1.00145 0.00156356 0)
(1.00166 0.000646037 0)
(1.00049 0.00116505 0)
(1.00012 0.0019716 0)
(1.00078 0.00202296 0)
(1.0007 0.00240822 0)
(1.00021 0.00350895 0)
(1.0006 0.00424874 0)
(1.00168 0.00442625 0)
(1.00224 0.00462195 0)
(1.00207 0.00526671 0)
(1.00192 0.00582604 0)
(0.999844 -0.000256421 0)
(0.99991 0.000628733 0)
(1.0008 0.000373195 0)
(1.00122 -0.00097488 0)
(0.999895 -0.000257163 0)
(0.999685 0.000872074 0)
(1.00025 0.00101819 0)
(1.0006 0.0015239 0)
(1.00136 0.00160327 0)
(1.00161 0.000848285 0)
(1.00065 0.00122795 0)
(1.00024 0.00201185 0)
(1.00085 0.00216014 0)
(1.00093 0.00245477 0)
(1.00053 0.00341536 0)
(1.00079 0.00416774 0)
(1.00177 0.00440149 0)
(1.00243 0.0045184 0)
(1.00236 0.00502519 0)
(1.00214 0.00557889 0)
(0.999858 -0.000241176 0)
(0.999911 0.000536511 0)
(1.00068 0.000418335 0)
(1.00115 -0.000887014 0)
(1.00002 -0.000254875 0)
(0.999763 0.000933921 0)
(1.00029 0.00106944 0)
(1.00064 0.0014084 0)
(1.00129 0.00160131 0)
(1.00157 0.00103083 0)
(1.00079 0.00131811 0)
(1.00037 0.0020458 0)
(1.00093 0.00226502 0)
(1.00113 0.00250049 0)
(1.00083 0.00333056 0)
(1.001 0.00407018 0)
(1.00186 0.00436386 0)
(1.00257 0.00444107 0)
(1.00263 0.00481455 0)
(1.00239 0.00532573 0)
(0.999871 -0.000220003 0)
(0.999918 0.000438155 0)
(1.00058 0.000459807 0)
(1.00107 -0.000768433 0)
(1.00015 -0.000270195 0)
(0.999851 0.000964873 0)
(1.00031 0.00114652 0)
(1.00067 0.00132987 0)
(1.00126 0.00156972 0)
(1.00154 0.00118042 0)
(1.00091 0.0014224 0)
(1.0005 0.00208146 0)
(1.001 0.0023498 0)
(1.00131 0.00253667 0)
(1.00112 0.00324878 0)
(1.00122 0.00395431 0)
(1.00197 0.00430088 0)
(1.00268 0.00437643 0)
(1.00286 0.0046368 0)
(1.00264 0.00507291 0)
(0.999883 -0.000194968 0)
(0.99993 0.0003427 0)
(1.00048 0.000487088 0)
(1.00099 -0.000622586 0)
(1.00028 -0.000288816 0)
(0.999955 0.000952539 0)
(1.00033 0.00123801 0)
(1.00069 0.00130009 0)
(1.00123 0.00153024 0)
(1.00152 0.00128794 0)
(1.00103 0.00151933 0)
(1.00063 0.00211978 0)
(1.00108 0.00242457 0)
(1.00146 0.00257103 0)
(1.00139 0.00317083 0)
(1.00145 0.00383059 0)
(1.00208 0.00421198 0)
(1.00277 0.00431235 0)
(1.00305 0.0044953 0)
(1.00289 0.00483333 0)
(0.999894 -0.000167776 0)
(0.999946 0.00025585 0)
(1.00041 0.000497663 0)
(1.0009 -0.000459323 0)
(1.0004 -0.000290144 0)
(1.00008 0.000894478 0)
(1.00035 0.00132026 0)
(1.0007 0.00131957 0)
(1.00122 0.00150106 0)
(1.00152 0.00135733 0)
(1.00114 0.00160152 0)
(1.00077 0.00215511 0)
(1.00116 0.00248782 0)
(1.00159 0.00260846 0)
(1.00163 0.00309678 0)
(1.00169 0.00370224 0)
(1.00221 0.00410185 0)
(1.00286 0.00423188 0)
(1.00319 0.00438065 0)
(1.00311 0.00461823 0)
(0.999904 -0.000140895 0)
(0.999965 0.00018344 0)
(1.00035 0.00048903 0)
(1.00081 -0.00028905 0)
(1.0005 -0.000261797 0)
(1.00021 0.000806605 0)
(1.00038 0.00137458 0)
(1.00069 0.00137238 0)
(1.00121 0.00149016 0)
(1.00153 0.00140068 0)
(1.00125 0.00166483 0)
(1.00091 0.00218461 0)
(1.00123 0.00254078 0)
(1.0017 0.00264936 0)
(1.00185 0.00303339 0)
(1.00192 0.00356841 0)
(1.00235 0.00397747 0)
(1.00294 0.0041274 0)
(1.0033 0.00427247 0)
(1.00329 0.00443149 0)
(0.999913 -0.000115532 0)
(0.999986 0.000128778 0)
(1.00031 0.000463663 0)
(1.00073 -0.000122404 0)
(1.00058 -0.000200428 0)
(1.00036 0.000702387 0)
(1.00044 0.00138919 0)
(1.00068 0.00144129 0)
(1.0012 0.00151059 0)
(1.00155 0.00143328 0)
(1.00137 0.0016972 0)
(1.00105 0.00219805 0)
(1.00132 0.00257849 0)
(1.00179 0.0026883 0)
(1.00204 0.00298862 0)
(1.00214 0.00343773 0)
(1.00251 0.00384582 0)
(1.00304 0.00400997 0)
(1.0034 0.00415821 0)
(1.00344 0.00427498 0)
(0.999922 -9.32268e-05 0)
(1.00001 9.55741e-05 0)
(1.00029 0.000425676 0)
(1.00065 3.2007e-05 0)
(1.00064 -0.00010224 0)
(1.0005 0.000603522 0)
(1.00051 0.00135397 0)
(1.00068 0.00150596 0)
(1.00118 0.00156285 0)
(1.00156 0.00147382 0)
(1.00149 0.00171194 0)
(1.0012 0.00219002 0)
(1.00141 0.0025984 0)
(1.00187 0.00271978 0)
(1.00219 0.00295741 0)
(1.00234 0.00331822 0)
(1.00266 0.00370244 0)
(1.00314 0.0038816 0)
(1.00348 0.00402825 0)
(1.00355 0.00413537 0)
(0.999931 -7.53526e-05 0)
(1.00002 8.54976e-05 0)
(1.00029 0.000381898 0)
(1.00059 0.000164068 0)
(1.00069 2.52781e-05 0)
(1.00064 0.000532979 0)
(1.00061 0.00127778 0)
(1.0007 0.00155061 0)
(1.00116 0.00163041 0)
(1.00157 0.00152363 0)
(1.0016 0.00172591 0)
(1.00136 0.00215881 0)
(1.00151 0.0025945 0)
(1.00194 0.00274136 0)
(1.00232 0.00293483 0)
(1.00252 0.00321943 0)
(1.00282 0.00355856 0)
(1.00324 0.00374429 0)
(1.00357 0.00388633 0)
(1.00364 0.00399509 0)
(0.999939 -6.13706e-05 0)
(1.00004 9.30806e-05 0)
(1.0003 0.000340164 0)
(1.00055 0.000263982 0)
(1.00071 0.000165007 0)
(1.00076 0.000500271 0)
(1.00073 0.00118527 0)
(1.00074 0.001562 0)
(1.00114 0.00170297 0)
(1.00157 0.00158671 0)
(1.0017 0.00174405 0)
(1.00152 0.00211699 0)
(1.00164 0.0025592 0)
(1.00202 0.00274319 0)
(1.00243 0.00291315 0)
(1.00268 0.0031356 0)
(1.00297 0.00342797 0)
(1.00335 0.00360473 0)
(1.00366 0.00374154 0)
(1.00373 0.00384688 0)
(0.999947 -5.13867e-05 0)
(1.00005 0.000114039 0)
(1.00031 0.000305949 0)
(1.00052 0.000331924 0)
(1.00072 0.000302277 0)
(1.00085 0.000508603 0)
(1.00086 0.00109721 0)
(1.00081 0.00153263 0)
(1.00113 0.00176363 0)
(1.00156 0.00166664 0)
(1.00178 0.00176907 0)
(1.00168 0.00208018 0)
(1.00177 0.00250321 0)
(1.0021 0.00271777 0)
(1.00252 0.00288503 0)
(1.00281 0.00305726 0)
(1.0031 0.00330795 0)
(1.00345 0.00346855 0)
(1.00375 0.00359599 0)
(1.0038 0.00369172 0)
(0.999955 -4.44609e-05 0)
(1.00006 0.000142052 0)
(1.00033 0.000284748 0)
(1.00051 0.000371347 0)
(1.00073 0.000425048 0)
(1.00092 0.00055508 0)
(1.00098 0.00102953 0)
(1.0009 0.00147683 0)
(1.00114 0.0017944 0)
(1.00155 0.00174766 0)
(1.00184 0.00180783 0)
(1.00182 0.00204585 0)
(1.00191 0.00243876 0)
(1.0022 0.00266909 0)
(1.0026 0.00284448 0)
(1.00292 0.00298393 0)
(1.00322 0.00319214 0)
(1.00354 0.00333689 0)
(1.00383 0.00345207 0)
(1.00388 0.00353598 0)
(0.999963 -3.91571e-05 0)
(1.00006 0.000170643 0)
(1.00034 0.000279538 0)
(1.00051 0.000392765 0)
(1.00074 0.000524918 0)
(1.00097 0.000623225 0)
(1.00108 0.000990665 0)
(1.001 0.0014126 0)
(1.00118 0.00179668 0)
(1.00153 0.00181261 0)
(1.00187 0.00186384 0)
(1.00194 0.00202239 0)
(1.00205 0.00236851 0)
(1.0023 0.00260282 0)
(1.00268 0.00278453 0)
(1.00302 0.00290826 0)
(1.00333 0.0030794 0)
(1.00363 0.00320439 0)
(1.0039 0.00331043 0)
(1.00394 0.00338229 0)
(0.99997 -3.39822e-05 0)
(1.00006 0.00019631 0)
(1.00035 0.000288074 0)
(1.00052 0.000406736 0)
(1.00075 0.000600163 0)
(1.001 0.000698576 0)
(1.00117 0.000985661 0)
(1.00111 0.00135106 0)
(1.00123 0.00177218 0)
(1.00154 0.00185415 0)
(1.00189 0.00191835 0)
(1.00203 0.00202131 0)
(1.00218 0.00230272 0)
(1.0024 0.00252427 0)
(1.00277 0.00270999 0)
(1.0031 0.00282316 0)
(1.00342 0.00297205 0)
(1.0037 0.00307272 0)
(1.00396 0.00316859 0)
(1.004 0.00322974 0)
(0.999976 -2.79812e-05 0)
(1.00006 0.00021714 0)
(1.00036 0.000308167 0)
(1.00054 0.00041911 0)
(1.00077 0.000651964 0)