/*--------------------------------*- C++ -*----------------------------------*\
| =========                 |                                                 |
| \\      /  F ield         | OpenFOAM: The Open Source CFD Toolbox           |
|  \\    /   O peration     | Version:  3.0.1                                 |
|   \\  /    A nd           | Web:      www.OpenFOAM.org                      |
|    \\/     M anipulation  |                                                 |
\*---------------------------------------------------------------------------*/
FoamFile
{
    version     2.0;
    format      ascii;
    class       volScalarField;
    location    "0.5";
    object      p;
}
// * * * * * * * * * * * * * * * * * * * * * * * * * * * * * * * * * * * * * //

dimensions      [0 2 -2 0 0 0 0];

internalField   nonuniform List<scalar> 
9600
(
2.06598e-10
0.00444942
0.00432068
0.00306813
0.00306126
0.00360383
0.00392123
0.00294379
0.00392488
0.00319906
0.00263271
0.00264159
0.00185461
0.00273914
0.00199301
0.00366388
0.0035405
0.00515881
0.0059999
0.00761429
3.7686e-07
0.00444825
0.00432433
0.00306774
0.00306526
0.00360354
0.00391613
0.00294736
0.00392705
0.00319124
0.00269681
0.00263193
0.00189597
0.00272402
0.00201109
0.00364152
0.00356057
0.00511731
0.00601706
0.00736014
1.42811e-06
0.00444635
0.00432884
0.00306694
0.00307025
0.00360198
0.0039103
0.0029533
0.00392305
0.00318363
0.00274599
0.00261631
0.00193215
0.00270466
0.00203513
0.00361586
0.0035852
0.00505712
0.00602299
0.00703526
4.27558e-06
0.00444413
0.00433296
0.00306565
0.00307556
0.00360067
0.00390417
0.00295989
0.00391415
0.0031752
0.00278961
0.00259587
0.00197376
0.00268467
0.00206333
0.00358977
0.00360754
0.00499008
0.00600027
0.00673507
9.8657e-06
0.00444137
0.00433645
0.00306379
0.00308195
0.00359955
0.00389704
0.00296738
0.00390081
0.00316605
0.0028303
0.0025728
0.00202248
0.00266403
0.002094
0.0035622
0.00362748
0.00491536
0.00595507
0.00646906
1.85113e-05
0.0044376
0.00433895
0.00306158
0.00308972
0.00359825
0.00388901
0.00297534
0.00388519
0.00315653
0.00286868
0.00254958
0.00207677
0.00264369
0.00212648
0.00353376
0.00364468
0.00483465
0.00589226
0.00622819
2.99441e-05
0.00443249
0.00434046
0.00305924
0.0030988
0.00359694
0.00388031
0.00298319
0.0038679
0.00314657
0.00290534
0.00252755
0.0021343
0.00262529
0.00215967
0.00350623
0.00365812
0.00475163
0.00581138
0.00600374
4.35896e-05
0.00442599
0.00434118
0.00305691
0.00310908
0.00359588
0.003871
0.00299061
0.00384977
0.00313608
0.00294104
0.00250729
0.00219341
0.00260958
0.00219266
0.0034815
0.00366581
0.004669
0.00571144
0.00579099
5.88464e-05
0.00441824
0.00434141
0.00305464
0.0031204
0.00359517
0.00386111
0.00299749
0.00383144
0.00312516
0.00297638
0.0024891
0.00225256
0.00259691
0.00222481
0.00346034
0.0036659
0.00458912
0.00559331
0.00558643
7.52524e-05
0.00440946
0.0043414
0.0030524
0.0031326
0.0035948
0.00385075
0.00300383
0.00381331
0.00311403
0.00301168
0.00247316
0.00231042
0.002588
0.00225484
0.0034429
0.00365792
0.00451333
0.00545888
0.00538651
9.2528e-05
0.00439985
0.00434133
0.00305014
0.00314552
0.0035947
0.00384001
0.00300969
0.00379556
0.00310293
0.003047
0.00245962
0.00236606
0.00258366
0.00228102
0.00342975
0.00364189
0.00444092
0.00531136
0.00518798
0.000110546
0.00438954
0.0043413
0.00304781
0.00315908
0.00359481
0.00382897
0.00301507
0.00377819
0.00309212
0.0030822
0.00244869
0.00241877
0.0025845
0.00230209
0.00342137
0.00361761
0.00436984
0.00515548
0.00498807
0.000129283
0.00437858
0.00434139
0.00304536
0.00317323
0.00359504
0.0038177
0.00301995
0.00376113
0.00308183
0.00311697
0.00244073
0.00246781
0.00259107
0.00231727
0.0034176
0.00358536
0.0042972
0.00499639
0.00478499
0.00014878
0.00436697
0.00434163
0.00304274
0.00318796
0.00359532
0.00380623
0.00302434
0.00374425
0.00307232
0.00315089
0.0024362
0.00251241
0.00260376
0.0023261
0.00341765
0.00354655
0.0042192
0.00483863
0.00457863
0.00016911
0.00435469
0.00434207
0.00303992
0.00320329
0.0035956
0.00379461
0.00302824
0.00372739
0.00306386
0.00318347
0.00243563
0.00255188
0.00262271
0.00232841
0.00342014
0.00350367
0.00413166
0.0046851
0.00437054
0.000190361
0.00434168
0.00434278
0.00303683
0.00321924
0.0035958
0.00378286
0.0030317
0.0037104
0.00305676
0.00321418
0.00243957
0.00258562
0.00264793
0.00232432
0.00342283
0.00345996
0.00403113
0.00453651
0.00416352
0.000212632
0.00432782
0.0043438
0.00303343
0.00323586
0.00359591
0.00377096
0.00303477
0.0036931
0.00305142
0.00324242
0.00244856
0.00261322
0.00267929
0.00231465
0.00342238
0.00341856
0.00391598
0.00439195
0.00396137
0.000236035
0.00431299
0.0043452
0.00302968
0.00325317
0.00359591
0.00375887
0.00303757
0.00367527
0.0030483
0.00326759
0.00246292
0.00263449
0.00271613
0.00230101
0.00341507
0.00338156
0.00378644
0.00424932
0.00376815
0.000260696
0.00429701
0.00434706
0.00302553
0.0032712
0.00359583
0.00374654
0.00304028
0.00365659
0.0030478
0.00328924
0.00248275
0.00264953
0.00275724
0.00228567
0.00339755
0.00334954
0.00364496
0.00410549
0.00358738
0.00028676
0.00427966
0.00434945
0.00302094
0.00328999
0.00359568
0.00373381
0.00304319
0.00363678
0.00305037
0.00330703
0.00250796
0.00265876
0.00280078
0.00227124
0.00336737
0.00332181
0.00349568
0.00395742
0.00342183
0.000314386
0.00426073
0.00435244
0.00301588
0.00330953
0.00359555
0.00372048
0.00304655
0.00361546
0.00305646
0.00332088
0.00253837
0.00266307
0.00284428
0.00225985
0.00332305
0.00329682
0.00334323
0.00380285
0.00327308
0.00034376
0.00423994
0.0043561
0.00301033
0.00332978
0.00359559
0.00370635
0.00305076
0.00359219
0.00306623
0.00333095
0.00257327
0.00266372
0.00288524
0.00225264
0.00326462
0.00327258
0.00319161
0.00364007
0.00314131
0.000375087
0.004217
0.00436049
0.00300431
0.00335069
0.00359598
0.00369106
0.00305631
0.00356668
0.00307963
0.00333765
0.00261144
0.00266231
0.00292158
0.00224993
0.00319338
0.00324695
0.00304395
0.00346809
0.00302549
0.000408586
0.0041916
0.00436566
0.00299786
0.00337214
0.00359705
0.00367419
0.00306368
0.0035388
0.00309634
0.00334179
0.00265141
0.00266046
0.00295192
0.00225142
0.00311082
0.00321781
0.00290318
0.00328683
0.00292309
0.000444498
0.00416343
0.00437162
0.00299107
0.0033939
0.00359923
0.00365528
0.00307326
0.00350861
0.00311574
0.00334471
0.00269141
0.00265902
0.00297533
0.00225639
0.00301877
0.00318327
0.00277234
0.00309696
0.0028295
0.000483077
0.00413213
0.00437836
0.00298412
0.0034157
0.00360293
0.00363385
0.00308522
0.00347653
0.00313699
0.00334801
0.00272988
0.00265824
0.00299143
0.00226373
0.00291916
0.00314194
0.0026543
0.00290001
0.00273844
0.000524596
0.00409735
0.00438582
0.00297724
0.00343714
0.00360871
0.00360944
0.00309967
0.00344297
0.00315869
0.00335329
0.00276594
0.00265782
0.00300026
0.00227226
0.00281359
0.00309261
0.00255144
0.00269891
0.00264293
0.000569334
0.00405869
0.0043939
0.00297077
0.00345762
0.00361739
0.00358181
0.00311646
0.00338805
0.00317893
0.00336175
0.00279943
0.00265688
0.00300225
0.0022812
0.00270318
0.00303399
0.00246557
0.00249823
0.00253601
0.000617534
0.00401573
0.00440241
0.00296511
0.00347645
0.00362981
0.00355088
0.00313507
0.00335283
0.00319602
0.00337392
0.00283067
0.00265414
0.00299772
0.00229042
0.00258957
0.00296447
0.00239722
0.00230415
0.00241198
0.000669455
0.00396876
0.00441106
0.00296083
0.00349286
0.00364669
0.0035168
0.00315437
0.00332167
0.00320866
0.00338973
0.00286043
0.00264804
0.00298652
0.00230064
0.00247523
0.00288241
0.0023448
0.00212395
0.00226811
0.000725435
0.00391738
0.0044193
0.00295862
0.00350597
0.00366862
0.00348013
0.00317286
0.00329575
0.0032161
0.00340819
0.00288998
0.00263729
0.00296842
0.00231276
0.00236245
0.00278652
0.00230472
0.00196485
0.00210579
0.000785743
0.00386152
0.00442651
0.00295921
0.00351487
0.00369588
0.00344195
0.00318879
0.00327663
0.00321818
0.00342749
0.00292098
0.00262147
0.00294246
0.0023202
0.00225401
0.00267652
0.00227167
0.00183283
0.00193094
0.000850595
0.00380133
0.00443187
0.00296333
0.00351903
0.0037285
0.00340369
0.00320014
0.00326524
0.00321551
0.00344537
0.0029547
0.00260123
0.00290727
0.00233622
0.00215388
0.00255344
0.00223915
0.00173173
0.00175439
0.000920222
0.00373712
0.00443434
0.00297156
0.00351808
0.00376611
0.00336716
0.00320494
0.00326165
0.00320941
0.00345926
0.00299141
0.00257837
0.00286155
0.00235327
0.00206624
0.00242014
0.00219995
0.0016613
0.0015902
0.000994756
0.00366942
0.00443279
0.0029843
0.00351194
0.0038079
0.00333454
0.0032019
0.00326584
0.00320173
0.00346648
0.00303055
0.00255567
0.00280495
0.00236827
0.00199416
0.00228151
0.00214772
0.00161492
0.00145143
0.00107424
0.00359903
0.0044259
0.00300184
0.00350092
0.00385257
0.00330814
0.00319039
0.00327636
0.00319489
0.00346492
0.00307069
0.00253624
0.00273827
0.00237878
0.00193869
0.00214286
0.00207957
0.00158267
0.00134599
0.00115867
0.00352698
0.00441231
0.0030241
0.00348557
0.00389862
0.00329018
0.00317032
0.00329061
0.00319138
0.00345435
0.00310924
0.00252252
0.00266321
0.00238208
0.00190013
0.00200897
0.0019967
0.00155521
0.00127249
0.00124787
0.00345451
0.00439079
0.00305064
0.00346688
0.00394428
0.00328234
0.00314269
0.00330476
0.00319257
0.00343577
0.00314326
0.00251596
0.00258312
0.00237549
0.00187852
0.00188483
0.00190116
0.00152544
0.00122338
0.00134152
0.00338294
0.00436029
0.00308085
0.00344612
0.00398772
0.00328558
0.00310931
0.00331497
0.00319865
0.00341105
0.00317083
0.00251717
0.00250485
0.00235626
0.00187208
0.0017769
0.00179553
0.00148793
0.00119078
0.00143909
0.0033138
0.00432015
0.00311368
0.0034247
0.00402739
0.00329999
0.00307226
0.0033192
0.00320908
0.00338218
0.00319112
0.002526
0.00242153
0.00232141
0.0018755
0.0016924
0.00168623
0.0014386
0.00116684
0.00153979
0.00324862
0.00427036
0.00314762
0.00340414
0.00406209
0.00332454
0.00303402
0.00331553
0.00322273
0.00335043
0.00320348
0.00254228
0.00233949
0.00226995
0.00188225
0.00163461
0.00158257
0.00137699
0.00114309
0.00164253
0.00318887
0.00421179
0.00318082
0.0033855
0.00409104
0.00335771
0.00299683
0.00330556
0.00323863
0.00331644
0.00320726
0.00256629
0.00226351
0.00220292
0.00188506
0.00160062
0.00149528
0.00130954
0.00111204
0.00174606
0.00313595
0.00414591
0.00321113
0.00336913
0.0041141
0.00339744
0.00296226
0.00329024
0.00325592
0.00328081
0.0032013
0.0025976
0.0022014
0.00212356
0.00187649
0.0015849
0.00143141
0.00124619
0.00107187
0.00184911
0.00309094
0.00407485
0.00323648
0.0033551
0.00413195
0.00344188
0.0029338
0.00326994
0.00327487
0.00324493
0.00318378
0.00263336
0.00216273
0.00203753
0.00184977
0.00158041
0.00139156
0.00119685
0.00102973
0.00195047
0.0030544
0.00400134
0.00325521
0.00334273
0.00414537
0.00349009
0.00290563
0.0032443
0.00329756
0.0032108
0.00315248
0.00266982
0.00215082
0.00195357
0.0018027
0.00157618
0.00137163
0.00116893
0.00099794
0.00204901
0.00302652
0.0039281
0.00326665
0.00332994
0.00415482
0.0035419
0.00287777
0.0032112
0.00332625
0.00318275
0.00310561
0.00270143
0.00216373
0.00188571
0.00174109
0.00156133
0.00136605
0.00116272
0.000987298
0.00214387
0.00300699
0.00385767
0.00327098
0.00331465
0.00416038
0.00359836
0.00285079
0.00316704
0.00335967
0.00316878
0.00304558
0.00271546
0.00219708
0.00184595
0.0016736
0.00153002
0.00136454
0.00117243
0.00100304
0.00223444
0.00299496
0.00379243
0.00326907
0.00329454
0.00416114
0.00366087
0.00282525
0.00310854
0.00339474
0.00317596
0.00297407
0.00270325
0.00224059
0.001839
0.00161386
0.00148392
0.00135606
0.00119149
0.00104156
0.00232032
0.00298928
0.00373407
0.00326295
0.00326679
0.00415468
0.00373048
0.00280489
0.00303168
0.00342369
0.00320999
0.00290884
0.00266389
0.00227732
0.00186028
0.00157829
0.00143204
0.0013343
0.00121081
0.00109247
0.00240144
0.00298856
0.00368356
0.00325519
0.00322966
0.0041377
0.00380696
0.00279734
0.00293438
0.00343576
0.00327414
0.00286881
0.00260239
0.00229285
0.00190232
0.00157619
0.00138753
0.00130036
0.00122283
0.00114693
0.00247803
0.00299144
0.00364127
0.00324854
0.00318512
0.00410625
0.00388791
0.00281062
0.00281952
0.00341653
0.00336066
0.00286904
0.0025279
0.0022786
0.00195226
0.00160732
0.00136664
0.00126251
0.00122296
0.00119842
0.00255042
0.00299664
0.00360656
0.00324585
0.00313501
0.00405674
0.00396881
0.00285037
0.00269624
0.00335635
0.0034533
0.002916
0.00246105
0.0022332
0.0019922
0.00166631
0.00138145
0.00123265
0.00121055
0.00124298
0.0026191
0.00300314
0.00357773
0.00324953
0.00308212
0.00398679
0.00404336
0.0029224
0.0025783
0.0032522
0.00353011
0.00300759
0.00242743
0.00216691
0.00200482
0.00174193
0.00143742
0.00122846
0.00119229
0.00127513
0.00268467
0.00301021
0.00355258
0.00326122
0.00303032
0.00389558
0.00410365
0.00302364
0.0024826
0.00310724
0.0035692
0.00313503
0.00244201
0.00209567
0.00198478
0.00181391
0.00152924
0.00126731
0.00118131
0.0012898
0.00274765
0.00301748
0.00352868
0.00328112
0.00298485
0.00378446
0.00414068
0.00314944
0.00242156
0.00293021
0.00355306
0.00327795
0.0025121
0.00204006
0.00193838
0.00186425
0.00164298
0.00135893
0.00120021
0.00129299
0.00280843
0.00302506
0.00350379
0.00330802
0.00295035
0.00365739
0.0041478
0.0032889
0.00240777
0.00274167
0.00347481
0.00340752
0.00263619
0.00202353
0.00187663
0.00188444
0.00175957
0.00149464
0.00127142
0.00130173
0.00286697
0.00303344
0.00347607
0.00333917
0.00293089
0.00352106
0.00412024
0.00342914
0.00244489
0.00256741
0.00333951
0.00349505
0.00280213
0.00206684
0.00181703
0.00187217
0.00186052
0.0016577
0.00140196
0.00134123
0.00292301
0.00304336
0.00344482
0.0033704
0.00292965
0.00338433
0.00405595
0.00355586
0.00253083
0.00242923
0.00315866
0.00352216
0.00298427
0.00217423
0.00178713
0.00183504
0.00193165
0.00182712
0.00157899
0.00143361
0.00297614
0.00305562
0.00341024
0.0033976
0.00294714
0.00325731
0.00395641
0.00365568
0.00265501
0.00234293
0.00295614
0.00348096
0.00315235
0.00233739
0.0018128
0.00179098
0.00196238
0.00197944
0.00178336
0.00158397
0.00302568
0.00307062
0.00337136
0.0034172
0.00298335
0.00314787
0.00382686
0.00371914
0.00280153
0.00231492
0.00276271
0.00337804
0.0032774
0.00254037
0.00190461
0.00176645
0.00195706
0.00209332
0.00198969
0.00177796
0.0030711
0.00308857
0.00333495
0.00342679
0.00303094
0.00306103
0.00367779
0.00374067
0.00295328
0.00234401
0.00260289
0.00322956
0.00334051
0.0027523
0.00205728
0.00178733
0.00193395
0.00215448
0.00216974
0.00199756
0.00311183
0.00310927
0.00330063
0.0034247
0.00308459
0.00300254
0.00352293
0.0037195
0.00309286
0.00242323
0.00249179
0.00305978
0.00333793
0.00294115
0.00225678
0.00186619
0.00191901
0.00217029
0.00230057
0.0022155
0.00314731
0.00313203
0.00327064
0.00341086
0.00313785
0.0029734
0.00337563
0.00365861
0.0032063
0.00253696
0.00243699
0.00289563
0.00327719
0.00308326
0.00247899
0.00200136
0.0019383
0.00216159
0.00237516
0.00240358
0.0031773
0.00315582
0.00324665
0.00338682
0.00318411
0.00297076
0.00324659
0.00356555
0.00328389
0.00266701
0.00243623
0.00276129
0.00317465
0.00316217
0.0026947
0.00218289
0.00200587
0.00215928
0.00240795
0.00254205
0.00320196
0.00317918
0.00322938
0.00335564
0.00321866
0.00298825
0.00314357
0.00345306
0.00332086
0.00279687
0.00248265
0.00266952
0.00305703
0.00317904
0.00287555
0.00239569
0.00212578
0.00218829
0.00242178
0.00262829
0.00322173
0.00320065
0.00321878
0.00332115
0.00323908
0.00301794
0.00307072
0.0033363
0.00331884
0.00291145
0.00256372
0.00262329
0.00294888
0.00315048
0.00300243
0.00261224
0.00229292
0.00226157
0.00244582
0.00267816
0.00323664
0.00321897
0.0032144
0.00328734
0.00324555
0.00305133
0.00302689
0.00322894
0.00328441
0.00299828
0.00266285
0.00262102
0.00286391
0.00309708
0.00307622
0.00280354
0.00249313
0.00238363
0.00249958
0.00271474
0.00324404
0.00323325
0.00321473
0.0032571
0.00323987
0.00308163
0.00300831
0.00314035
0.00322916
0.00305202
0.00276238
0.00265709
0.00281212
0.00303762
0.00310925
0.00295445
0.00269833
0.00254699
0.00259308
0.00276446
0.00324972
0.00324325
0.00321758
0.00323241
0.00322511
0.00310443
0.00300827
0.0030747
0.00316588
0.00307562
0.00284894
0.0027182
0.00279839
0.00298712
0.00311309
0.00306447
0.00288507
0.0027343
0.00272531
0.00284371
0.00325429
0.00324907
0.00322089
0.00321399
0.00320543
0.00311735
0.00301867
0.00303268
0.00310541
0.00307462
0.00291591
0.0027875
0.00281645
0.00295943
0.00310163
0.00313824
0.00304236
0.00292183
0.002886
0.00295612
0.00325735
0.0032512
0.00322292
0.0032012
0.00318518
0.00312079
0.00303168
0.003011
0.00305648
0.00305736
0.00296113
0.00285413
0.00285554
0.00296035
0.00309179
0.00318207
0.00316717
0.00309353
0.00305695
0.00309307
0.00325856
0.00325043
0.00322262
0.00319259
0.00316753
0.00311702
0.00304225
0.00300414
0.00302326
0.00303462
0.00298691
0.00291202
0.00290366
0.0029841
0.00309755
0.00320831
0.00325981
0.00324035
0.00322027
0.00324008
0.00325787
0.00324767
0.00321996
0.0031863
0.00315384
0.00310915
0.00304826
0.00300521
0.00300453
0.00301496
0.00299856
0.00295802
0.00295288
0.00302145
0.00312339
0.00323323
0.00332509
0.00335799
0.00336328
0.00337957
0.00325543
0.00324359
0.00321532
0.0031805
0.00314381
0.00310044
0.00304987
0.00300889
0.002997
0.0030024
0.00300262
0.002992
0.00299893
0.00306337
0.00316281
0.00326821
0.00337524
0.00344747
0.00348103
0.00350106
0.00325142
0.00323854
0.00320949
0.00317418
0.00313608
0.00309307
0.00304875
0.00301221
0.0029965
0.00299763
0.00300492
0.0030157
0.00303863
0.00310318
0.00320607
0.00331223
0.00342156
0.00351589
0.0035737
0.0036028
0.00324622
0.00323271
0.00320318
0.00316737
0.00312938
0.00308724
0.00304645
0.0030141
0.00299871
0.00299879
0.00300971
0.00303262
0.00307049
0.00313735
0.00324173
0.00335526
0.00346594
0.00356976
0.00364494
0.0036849
0.00324027
0.00322636
0.00319672
0.00316029
0.00312286
0.00308234
0.00304384
0.00301435
0.00300056
0.00300237
0.00301719
0.00304756
0.00309653
0.00316672
0.00326769
0.00338471
0.0034984
0.00360709
0.00369584
0.00374947
0.00323414
0.00321994
0.00319042
0.00315336
0.00311636
0.0030778
0.00304129
0.00301342
0.00300078
0.00300458
0.00302371
0.00306016
0.00311923
0.0031999
0.00330288
0.00341949
0.00352875
0.00362431
0.00370089
0.00374811
0.00322792
0.00321359
0.00318478
0.00314756
0.00311076
0.00307439
0.00304005
0.00301319
0.00300144
0.00300713
0.00302945
0.00306827
0.00312872
0.0032116
0.00331517
0.0034351
0.00355545
0.0036621
0.00374685
0.00379883
0.00322164
0.0032056
0.00317562
0.00313733
0.00309904
0.00306263
0.0030293
0.00300291
0.00299137
0.00299824
0.00302359
0.00306615
0.0031287
0.00321342
0.00331799
0.00343635
0.00355571
0.00366119
0.00374303
0.00379222
0.0109015
0.00726618
0.000134679
-0.0053843
-0.006534
-0.00515771
-0.00355907
-0.00236473
-0.00142265
-0.000680095
-0.000248313
-1.0411e-05
0.000255104
0.000576186
0.000907562
0.00122113
0.0014622
0.00163298
0.00179073
0.00194688
0.00209386
0.00224223
0.00239705
0.00257217
0.00278439
0.00302037
0.00325006
0.0034621
0.00365594
0.00384234
0.00404105
0.00424439
0.00442777
0.00460179
0.00480185
0.00501632
0.00520826
0.00541664
0.00567672
0.00592926
0.00615089
0.0063825
0.00663161
0.00688307
0.00713564
0.0073849
0.00763223
0.00789334
0.00818889
0.00849431
0.00877065
0.00905125
0.00937845
0.00971298
0.010028
0.0103648
0.0107293
0.0110923
0.0114565
0.0118395
0.012232
0.0126263
0.0130283
0.0134403
0.0138609
0.0142852
0.0147194
0.0151641
0.015622
0.0160886
0.0165647
0.0170495
0.0175372
0.0180338
0.0185352
0.0190507
0.0195721
0.0201058
0.0206494
0.0212018
0.0217682
0.0223398
0.0229273
0.0235212
0.0241273
0.0247464
0.0253716
0.0260148
0.0266638
0.0273275
0.0280043
0.0286887
0.0293917
0.0301015
0.0308311
0.0315621
0.0323312
0.0330918
0.0338452
0.0346719
0.0103065
0.00713743
0.000228125
-0.00524284
-0.00645047
-0.00511876
-0.00353642
-0.00234955
-0.0014111
-0.000669931
-0.000239139
-2.43715e-06
0.000262095
0.000582385
0.000913095
0.00122623
0.00146689
0.00163718
0.00179451
0.00195032
0.00209698
0.00224507
0.00239964
0.00257452
0.00278654
0.00302238
0.00325195
0.00346387
0.00365759
0.00384386
0.00404245
0.0042457
0.004429
0.00460291
0.00480288
0.00501732
0.00520919
0.00541744
0.00567748
0.00593001
0.00615159
0.00638314
0.00663221
0.00688362
0.00713615
0.00738539
0.00763268
0.00789374
0.00818925
0.00849466
0.00877098
0.00905152
0.00937869
0.00971322
0.0100282
0.010365
0.0107295
0.0110925
0.0114566
0.0118396
0.0122321
0.0126264
0.0130284
0.0134404
0.013861
0.0142852
0.0147194
0.0151642
0.0156221
0.0160887
0.0165647
0.0170495
0.0175372
0.0180338
0.0185352
0.0190507
0.0195721
0.0201058
0.0206494
0.0212018
0.0217682
0.0223398
0.0229273
0.0235212
0.0241273
0.0247464
0.0253716
0.0260148
0.0266638
0.0273275
0.0280043
0.0286887
0.0293917
0.0301015
0.0308311
0.0315621
0.0323312
0.0330918
0.0338453
0.034672
0.00970843
0.00700324
0.000423841
-0.00496583
-0.00629589
-0.00505874
-0.00350728
-0.00232981
-0.00139679
-0.000659351
-0.000230708
5.01579e-06
0.000269074
0.000588718
0.000918626
0.00123116
0.00147138
0.00164123
0.00179816
0.0019536
0.00209989
0.00224768
0.00240199
0.00257666
0.00278852
0.00302425
0.00325369
0.00346548
0.00365908
0.00384523
0.00404373
0.00424691
0.00443012
0.0046039
0.0048038
0.00501822
0.00521002
0.00541816
0.00567818
0.0059307
0.0061522
0.00638371
0.00663275
0.00688413
0.00713662
0.00738583
0.00763308
0.00789409
0.00818957
0.00849499
0.00877128
0.00905176
0.00937892
0.00971345
0.0100284
0.0103652
0.0107296
0.0110926
0.0114567
0.0118397
0.0122322
0.0126264
0.0130285
0.0134405
0.013861
0.0142853
0.0147195
0.0151642
0.0156221
0.0160887
0.0165647
0.0170495
0.0175372
0.0180339
0.0185353
0.0190507
0.0195721
0.0201058
0.0206494
0.0212018
0.0217682
0.0223398
0.0229273
0.0235212
0.0241273
0.0247464
0.0253716
0.0260148
0.0266638
0.0273275
0.0280043
0.0286887
0.0293917
0.0301015
0.0308311
0.0315621
0.0323312
0.0330918
0.0338453
0.0346721
0.00914925
0.00687781
0.000678049
-0.00460624
-0.00607664
-0.00496897
-0.00346236
-0.00229864
-0.0013748
-0.000645023
-0.000220742
1.36753e-05
0.000277385
0.00059619
0.000924859
0.00123646
0.00147626
0.00164596
0.00180266
0.00195765
0.00210341
0.00225077
0.00240478
0.00257921
0.00279089
0.00302643
0.00325566
0.00346729
0.00366077
0.00384681
0.00404522
0.00424832
0.00443139
0.00460501
0.00480481
0.00501922
0.00521096
0.00541899
0.00567897
0.00593145
0.00615288
0.00638435
0.00663338
0.0068847
0.00713714
0.00738631
0.00763353
0.0078945
0.00818995
0.00849537
0.00877162
0.00905204
0.00937918
0.00971371
0.0100286
0.0103654
0.0107298
0.0110928
0.0114569
0.0118399
0.0122323
0.0126265
0.0130285
0.0134405
0.0138611
0.0142854
0.0147195
0.0151642
0.0156221
0.0160887
0.0165648
0.0170495
0.0175373
0.0180339
0.0185353
0.0190507
0.0195721
0.0201058
0.0206494
0.0212018
0.0217683
0.0223398
0.0229273
0.0235212
0.0241273
0.0247464
0.0253716
0.0260148
0.0266638
0.0273274
0.0280043
0.0286887
0.0293917
0.0301015
0.0308311
0.0315621
0.0323312
0.0330918
0.0338453
0.0346724
0.00860551
0.00673168
0.000940874
-0.00422063
-0.00583052
-0.00486493
-0.00340941
-0.00225961
-0.00134587
-0.000626285
-0.000208116
2.46343e-05
0.000287998
0.000605674
0.000932373
0.00124223
0.00148145
0.00165137
0.00180817
0.0019628
0.00210793
0.00225476
0.00240846
0.0025827
0.00279411
0.00302926
0.0032581
0.00346947
0.00366287
0.00384886
0.0040472
0.00425018
0.00443307
0.00460645
0.00480608
0.00502046
0.00521219
0.00542013
0.00567999
0.00593234
0.0061537
0.0063852
0.00663422
0.00688544
0.00713779
0.00738692
0.00763413
0.00789505
0.00819046
0.00849586
0.00877207
0.00905243
0.00937956
0.00971407
0.0100289
0.0103656
0.0107301
0.011093
0.011457
0.01184
0.0122324
0.0126267
0.0130287
0.0134406
0.0138612
0.0142855
0.0147196
0.0151643
0.0156222
0.0160888
0.0165648
0.0170496
0.0175373
0.0180339
0.0185353
0.0190507
0.0195721
0.0201059
0.0206495
0.0212019
0.0217683
0.0223398
0.0229273
0.0235212
0.0241273
0.0247464
0.0253716
0.0260148
0.0266638
0.0273274
0.0280043
0.0286887
0.0293917
0.0301015
0.0308311
0.0315621
0.0323312
0.0330918
0.0338453
0.0346727
0.00806767
0.00655091
0.00119471
-0.00382492
-0.00556886
-0.00475376
-0.00335448
-0.00221775
-0.00131315
-0.000604367
-0.000193022
3.79087e-05
0.000300853
0.000617053
0.000941031
0.00124832
0.00148668
0.00165714
0.00181441
0.00196881
0.00211332
0.00225961
0.00241312
0.00258736
0.00279852
0.00303307
0.0032612
0.00347212
0.00366543
0.00385147
0.00404976
0.00425263
0.00443537
0.00460846
0.00480775
0.00502205
0.00521388
0.00542176
0.00568135
0.00593344
0.00615476
0.00638637
0.00663538
0.00688643
0.00713863
0.00738773
0.00763496
0.00789586
0.00819118
0.00849653
0.00877271
0.00905303
0.00938011
0.00971457
0.0100294
0.010366
0.0107304
0.0110933
0.0114573
0.0118403
0.0122327
0.0126269
0.0130289
0.0134408
0.0138614
0.0142856
0.0147197
0.0151644
0.0156223
0.0160889
0.0165649
0.0170497
0.0175374
0.018034
0.0185353
0.0190508
0.0195721
0.0201059
0.0206495
0.0212019
0.0217683
0.0223398
0.0229273
0.0235212
0.0241273
0.0247464
0.0253716
0.0260148
0.0266638
0.0273274
0.0280043
0.0286887
0.0293917
0.0301015
0.0308311
0.0315621
0.0323312
0.0330918
0.0338454
0.0346731
0.0075392
0.00633641
0.00143521
-0.00342129
-0.00529175
-0.00463536
-0.00329853
-0.00217474
-0.00127797
-0.000579908
-0.000175854
5.29515e-05
0.000315284
0.000629712
0.000950438
0.00125454
0.00149178
0.00166292
0.00182086
0.00197518
0.00211914
0.00226494
0.00241849
0.00259306
0.00280418
0.00303804
0.0032652
0.0034754
0.00366852
0.00385462
0.00405288
0.00425569
0.0044384
0.0046112
0.00480998
0.00502412
0.0052162
0.00542405
0.00568312
0.00593477
0.00615612
0.00638796
0.006637
0.0068878
0.00713974
0.0073888
0.00763614
0.00789703
0.00819219
0.00849743
0.00877363
0.00905395
0.00938092
0.00971527
0.01003
0.0103667
0.010731
0.0110938
0.0114578
0.0118407
0.0122331
0.0126272
0.0130291
0.0134411
0.0138616
0.0142858
0.0147199
0.0151646
0.0156224
0.016089
0.016565
0.0170498
0.0175374
0.018034
0.0185354
0.0190508
0.0195722
0.0201059
0.0206495
0.0212019
0.0217683
0.0223398
0.0229273
0.0235212
0.0241273
0.0247464
0.0253716
0.0260148
0.0266638
0.0273274
0.0280043
0.0286887
0.0293917
0.0301015
0.0308311
0.0315621
0.0323312
0.0330918
0.0338454
0.0346736
0.00702969
0.00609519
0.00166052
-0.00301036
-0.00499788
-0.00450849
-0.00324173
-0.00213151
-0.00124104
-0.000553211
-0.000156933
6.92196e-05
0.000330646
0.000643087
0.000960297
0.00126091
0.00149683
0.00166862
0.00182729
0.00198159
0.00212501
0.00227034
0.0024241
0.00259934
0.00281072
0.00304405
0.00327017
0.00347947
0.00367223
0.00385831
0.00405644
0.00425919
0.00444205
0.00461467
0.00481284
0.00502677
0.00521927
0.00542713
0.00568541
0.00593639
0.0061578
0.00639002
0.00663914
0.00688964
0.00714121
0.00739021
0.00763775
0.00789866
0.00819357
0.00849864
0.00877492
0.00905528
0.00938208
0.00971627
0.010031
0.0103676
0.0107318
0.0110945
0.0114584
0.0118413
0.0122336
0.0126277
0.0130296
0.0134414
0.0138619
0.0142861
0.0147201
0.0151648
0.0156226
0.0160892
0.0165652
0.0170499
0.0175376
0.0180341
0.0185355
0.0190509
0.0195723
0.020106
0.0206496
0.0212019
0.0217683
0.0223399
0.0229273
0.0235212
0.0241274
0.0247464
0.0253716
0.0260148
0.0266638
0.0273275
0.0280043
0.0286887
0.0293917
0.0301015
0.0308311
0.0315621
0.0323311
0.0330918
0.0338455
0.0346742
0.00654816
0.00583496
0.00186742
-0.00259556
-0.004688
-0.00437288
-0.00318457
-0.00208902
-0.00120295
-0.000524437
-0.000136331
8.6525e-05
0.000346667
0.000656937
0.000970495
0.00126747
0.00150194
0.00167432
0.00183372
0.001988
0.00213087
0.00227568
0.00242967
0.00260575
0.00281765
0.00305069
0.00327593
0.00348431
0.00367662
0.00386252
0.00406035
0.00426296
0.00444607
0.00461868
0.00481623
0.00503
0.00522313
0.00543106
0.00568827
0.00593832
0.00615979
0.00639249
0.00664177
0.00689195
0.00714308
0.00739201
0.00763982
0.0079008
0.00819535
0.00850018
0.00877663
0.00905709
0.00938364
0.00971759
0.0100323
0.0103688
0.0107329
0.0110954
0.0114593
0.0118422
0.0122344
0.0126284
0.0130302
0.013442
0.0138624
0.0142865
0.0147205
0.0151651
0.0156229
0.0160894
0.0165654
0.0170501
0.0175378
0.0180343
0.0185356
0.019051
0.0195724
0.0201061
0.0206497
0.021202
0.0217684
0.0223399
0.0229274
0.0235213
0.0241274
0.0247464
0.0253716
0.0260149
0.0266638
0.0273275
0.0280043
0.0286887
0.0293917
0.0301015
0.0308311
0.0315621
0.0323311
0.0330917
0.0338456
0.0346749
0.00610173
0.00556313
0.00205078
-0.00218298
-0.00436392
-0.00422771
-0.00312661
-0.00204758
-0.001164
-0.000493504
-0.000113831
0.000104994
0.000363385
0.000671285
0.000981055
0.00127423
0.00150715
0.0016801
0.00184028
0.0019946
0.00213692
0.00228114
0.00243528
0.00261217
0.00282468
0.00305758
0.00328211
0.0034897
0.00368157
0.0038672
0.00406458
0.0042669
0.00445029
0.00462297
0.00481996
0.00503366
0.00522766
0.00543574
0.00569169
0.00594059
0.00616208
0.00639532
0.00664481
0.00689466
0.00714533
0.00739422
0.00764239
0.00790344
0.00819751
0.00850203
0.00877875
0.00905941
0.00938564
0.00971928
0.010034
0.0103705
0.0107343
0.0110967
0.0114605
0.0118433
0.0122353
0.0126293
0.013031
0.0134427
0.0138631
0.0142871
0.014721
0.0151655
0.0156233
0.0160898
0.0165657
0.0170504
0.017538
0.0180345
0.0185359
0.0190512
0.0195725
0.0201062
0.0206498
0.0212021
0.0217685
0.02234
0.0229274
0.0235213
0.0241274
0.0247465
0.0253716
0.0260149
0.0266638
0.0273275
0.0280043
0.0286887
0.0293917
0.0301015
0.030831
0.0315621
0.0323311
0.0330917
0.0338457
0.0346757
0.00569445
0.0052861
0.00220512
-0.00177885
-0.0040266
-0.00407045
-0.00306627
-0.00200713
-0.00112453
-0.00046045
-8.92393e-05
0.000124808
0.000380913
0.00068622
0.000992052
0.00128127
0.00151251
0.00168604
0.00184709
0.00200157
0.00214342
0.00228705
0.00244122
0.00261879
0.00283177
0.0030645
0.00328838
0.0034953
0.00368682
0.00387222
0.00406909
0.00427105
0.00445465
0.00462742
0.00482388
0.00503761
0.00523265
0.00544101
0.00569559
0.0059432
0.00616466
0.00639842
0.00664812
0.00689766
0.00714787
0.00739678
0.00764542
0.00790656
0.00820003
0.00850414
0.00878122
0.00906217
0.00938804
0.00972132
0.0100361
0.0103725
0.010736
0.0110982
0.0114619
0.0118446
0.0122366
0.0126304
0.013032
0.0134436
0.0138639
0.0142879
0.0147217
0.0151661
0.0156237
0.0160902
0.0165661
0.0170508
0.0175383
0.0180348
0.0185361
0.0190515
0.0195727
0.0201064
0.0206499
0.0212023
0.0217686
0.0223401
0.0229275
0.0235214
0.0241275
0.0247465
0.0253717
0.0260149
0.0266638
0.0273275
0.0280043
0.0286887
0.0293917
0.0301015
0.030831
0.0315621
0.032331
0.0330916
0.0338458
0.0346766
0.00532653
0.0050095
0.00232664