/*--------------------------------*- C++ -*----------------------------------*\
| =========                 |                                                 |
| \\      /  F ield         | OpenFOAM: The Open Source CFD Toolbox           |
|  \\    /   O peration     | Version:  3.0.1                                 |
|   \\  /    A nd           | Web:      www.OpenFOAM.org                      |
|    \\/     M anipulation  |                                                 |
\*---------------------------------------------------------------------------*/
FoamFile
{
    version     2.0;
    format      ascii;
    class       surfaceScalarField;
    location    "0.5";
    object      phi;
}
// * * * * * * * * * * * * * * * * * * * * * * * * * * * * * * * * * * * * * //

dimensions      [0 3 -1 0 0 0 0];

internalField   nonuniform List<scalar> 
19000
(
1.172e-06
-9.17759e-07
1.16957e-06
4.22479e-07
1.18626e-06
5.5364e-08
1.18633e-06
-4.55295e-08
1.202e-06
1.27442e-07
1.18922e-06
2.24571e-07
1.17484e-06
1.44331e-07
1.19089e-06
7.11643e-08
1.19514e-06
-1.06e-08
1.17717e-06
-5.67101e-07
1.20863e-06
-3.26204e-08
1.1846e-06
-6.59454e-07
1.21157e-06
-1.3718e-09
1.18393e-06
-1.37169e-07
1.19018e-06
1.17617e-08
1.17033e-06
1.29099e-07
1.17528e-06
7.32371e-08
1.16298e-06
1.31205e-07
1.16155e-06
2.11209e-07
1.40799e-07
1.1357e-06
1.23132e-06
-9.24817e-07
1.23111e-06
4.22686e-07
1.2468e-06
3.96762e-08
1.24819e-06
-4.69227e-08
1.26031e-06
1.15329e-07
1.25218e-06
2.32702e-07
1.23391e-06
1.62601e-07
1.25173e-06
5.3345e-08
1.24932e-06
-8.19799e-09
1.23221e-06
-5.49992e-07
1.25737e-06
-5.7776e-08
1.23784e-06
-6.39923e-07
1.25839e-06
-2.19177e-08
1.24559e-06
-1.24374e-07
1.23803e-06
1.93234e-08
1.23888e-06
1.28251e-07
1.22282e-06
8.92961e-08
1.23389e-06
1.20132e-07
1.20484e-06
2.40259e-07
1.26215e-07
1.21942e-06
1.2903e-06
-9.32338e-07
1.30051e-06
4.12477e-07
1.31043e-06
2.97634e-08
1.31536e-06
-5.18602e-08
1.3223e-06
1.08393e-07
1.32003e-06
2.34976e-07
1.29923e-06
1.83401e-07
1.31424e-06
3.83321e-08
1.30525e-06
7.91786e-10
1.29042e-06
-5.35159e-07
1.30819e-06
-7.55511e-08
1.29714e-06
-6.28875e-07
1.30998e-06
-3.47556e-08
1.31134e-06
-1.2573e-07
1.29596e-06
3.47023e-08
1.30308e-06
1.2113e-07
1.28595e-06
1.06428e-07
1.29128e-06
1.14797e-07
1.27792e-06
2.53624e-07
1.33544e-07
1.27059e-06
1.34933e-06
-9.37564e-07
1.37104e-06
3.90763e-07
1.37422e-06
2.65859e-08
1.3827e-06
-6.03427e-08
1.38614e-06
1.04951e-07
1.38722e-06
2.33899e-07
1.36816e-06
2.02459e-07
1.37646e-06
3.00367e-08
1.36269e-06
1.45599e-08
1.34959e-06
-5.22055e-07
1.36111e-06
-8.70793e-08
1.35656e-06
-6.24322e-07
1.36746e-06
-4.56546e-08
1.37512e-06
-1.33386e-07
1.36382e-06
4.60032e-08
1.36792e-06
1.17022e-07
1.3586e-06
1.15755e-07
1.35652e-06
1.16871e-07
1.35318e-06
2.56963e-07
1.45557e-07
1.34117e-06
1.40934e-06
-9.38546e-07
1.43938e-06
3.60721e-07
1.43723e-06
2.87361e-08
1.44717e-06
-7.02824e-08
1.44986e-06
1.02259e-07
1.45125e-06
2.32514e-07
1.43731e-06
2.164e-07
1.43827e-06
2.9071e-08
1.42216e-06
3.06699e-08
1.40975e-06
-5.09646e-07
1.41664e-06
-9.39702e-08
1.41462e-06
-6.22297e-07
1.42707e-06
-5.81043e-08
1.4362e-06
-1.42517e-07
1.43311e-06
4.90937e-08
1.43616e-06
1.13968e-07
1.43229e-06
1.1963e-07
1.42922e-06
1.19933e-07
1.42919e-06
2.56993e-07
1.57504e-07
1.41725e-06
1.47192e-06
-9.34788e-07
1.50509e-06
3.27546e-07
1.50044e-06
3.33943e-08
1.50935e-06
-7.91923e-08
1.5127e-06
9.89012e-08
1.51287e-06
2.32346e-07
1.50485e-06
2.2442e-07
1.50089e-06
3.30342e-08
1.48468e-06
4.68802e-08
1.47261e-06
-4.97574e-07
1.47616e-06
-9.75263e-08
1.4737e-06
-6.19837e-07
1.48712e-06
-7.15215e-08
1.49619e-06
-1.51588e-07
1.49996e-06
4.53273e-08
1.50479e-06
1.09132e-07
1.50474e-06
1.1968e-07
1.50284e-06
1.21839e-07
1.50557e-06
2.54256e-07
1.69696e-07
1.49338e-06
1.53842e-06
-9.26991e-07
1.56999e-06
2.9597e-07
1.56543e-06
3.79618e-08
1.57182e-06
-8.55805e-08
1.57552e-06
9.51945e-08
1.57462e-06
2.33252e-07
1.57153e-06
2.27503e-07
1.56593e-06
3.86358e-08
1.55143e-06
6.13781e-08
1.5398e-06
-4.85941e-07
1.54111e-06
-9.88345e-08
1.53666e-06
-6.15385e-07
1.54919e-06
-8.40519e-08
1.55735e-06
-1.59747e-07
1.56562e-06
3.70579e-08
1.57254e-06
1.02207e-07
1.57601e-06
1.16213e-07
1.57515e-06
1.227e-07
1.58059e-06
2.48818e-07
1.81804e-07
1.56848e-06
1.6095e-06
-9.16365e-07
1.63664e-06
2.68835e-07
1.63351e-06
4.10887e-08
1.63717e-06
-8.92348e-08
1.64027e-06
9.20922e-08
1.6392e-06
2.34318e-07
1.63967e-06
2.27034e-07
1.63486e-06
4.34457e-08
1.6232e-06
7.30401e-08
1.61211e-06
-4.74853e-07
1.61208e-06
-9.88036e-08
1.60507e-06
-6.08377e-07
1.61553e-06
-9.45124e-08
1.62185e-06
-1.66063e-07
1.6326e-06
2.63104e-08
1.64047e-06
9.43366e-08
1.64684e-06
1.09839e-07
1.64649e-06
1.23053e-07
1.65398e-06
2.41323e-07
1.93147e-07
1.64264e-06
1.68527e-06
-9.04062e-07
1.70713e-06
2.46971e-07
1.70556e-06
4.26659e-08
1.70706e-06
-9.0736e-08
1.70901e-06
9.0144e-08
1.70866e-06
2.34661e-07
1.71152e-06
2.24181e-07
1.7086e-06
4.63632e-08
1.70007e-06
8.15657e-08
1.68947e-06
-4.64248e-07
1.6888e-06
-9.81349e-08
1.67921e-06
-5.98785e-07
1.68741e-06
-1.02716e-07
1.69114e-06
-1.69793e-07
1.70283e-06
1.46205e-08
1.71024e-06
8.69272e-08
1.71847e-06
1.01614e-07
1.71804e-06
1.23476e-07
1.72673e-06
2.32631e-07
2.03133e-07
1.71675e-06
1.76557e-06
-8.90912e-07
1.78267e-06
2.29873e-07
1.7821e-06
4.32356e-08
1.78222e-06
-9.08592e-08
1.78309e-06
8.92749e-08
1.78402e-06
2.33731e-07
1.78832e-06
2.19884e-07
1.78741e-06
4.72757e-08
1.78174e-06
8.72384e-08
1.77141e-06
-4.53922e-07
1.77059e-06
-9.7318e-08
1.75863e-06
-5.86818e-07
1.765e-06
-1.09091e-07
1.76579e-06
-1.70582e-07
1.7774e-06
3.00624e-09
1.78325e-06
8.10834e-08
1.79221e-06
9.2649e-08
1.79126e-06
1.24427e-07
1.80025e-06
2.23638e-07
2.11306e-07
1.79208e-06
1.85023e-06
-8.77394e-07
1.86362e-06
2.16487e-07
1.86343e-06
4.34213e-08
1.86281e-06
-9.02387e-08
1.86296e-06
8.9121e-08
1.8654e-06
2.31298e-07
1.87036e-06
2.14921e-07
1.87107e-06
4.6564e-08
1.86778e-06
9.05318e-08
1.85748e-06
-4.43628e-07
1.85683e-06
-9.66661e-08
1.84276e-06
-5.72745e-07
1.84792e-06
-1.14248e-07
1.84575e-06
-1.6842e-07
1.85673e-06
-7.97043e-09
1.86039e-06
7.74267e-08
1.86918e-06
8.386e-08
1.8675e-06
1.26102e-07
1.87595e-06
2.15192e-07
2.17307e-07
1.86995e-06
1.93913e-06
-8.63683e-07
1.94989e-06
2.0573e-07
1.94966e-06
4.36519e-08
1.94872e-06
-8.93053e-08
1.94845e-06
8.93885e-08
1.95239e-06
2.27358e-07
1.95743e-06
2.09882e-07
1.95925e-06
4.47463e-08
1.95792e-06
9.18632e-08
1.94744e-06
-4.3315e-07
1.94715e-06
-9.63765e-08
1.93123e-06
-5.56825e-07
1.93571e-06
-1.1873e-07
1.93082e-06
-1.63526e-07
1.94093e-06
-1.80767e-08
1.94224e-06
7.61099e-08
1.95019e-06
7.59102e-08
1.94789e-06
1.28407e-07
1.95508e-06
2.08005e-07
2.2091e-07
1.95147e-06
2.03225e-06
-8.49741e-07
2.0413e-06
1.96676e-07
2.0408e-06
4.415e-08
2.03984e-06
-8.83473e-08
2.03925e-06
8.99808e-08
2.04456e-06
2.22053e-07
2.04934e-06
2.05103e-07
2.05179e-06
4.22885e-08
2.0521e-06
9.15602e-08
2.04128e-06
-4.22334e-07
2.04148e-06
-9.65804e-08
2.02394e-06
-5.3928e-07
2.02815e-06
-1.22943e-07
2.02087e-06
-1.56245e-07
2.03008e-06
-2.72898e-08
2.02929e-06
7.69067e-08
2.03594e-06
6.92527e-08
2.03335e-06
1.30999e-07
2.03878e-06
2.02577e-07
2.22071e-07
2.03762e-06
2.12967e-06
-8.35409e-07
2.13778e-06
1.88566e-07
2.1369e-06
4.50309e-08
2.13613e-06
-8.75765e-08
2.13517e-06
9.09391e-08
2.14162e-06
2.15601e-07
2.14604e-06
2.00689e-07
2.1488e-06
3.95294e-08
2.15044e-06
8.99178e-08
2.13918e-06
-4.11077e-07
2.13997e-06
-9.73673e-08
2.12098e-06
-5.2029e-07
2.12522e-06
-1.27184e-07
2.11597e-06
-1.46996e-07
2.12438e-06
-3.56971e-08
2.12197e-06
7.93124e-08
2.12703e-06
6.41922e-08
2.12465e-06
1.33379e-07
2.12811e-06
1.99119e-07
2.21007e-07
2.12917e-06
2.23158e-06
-8.20503e-07
2.23938e-06
1.80771e-07
2.23802e-06
4.63924e-08
2.2376e-06
-8.71594e-08
2.2362e-06
9.23365e-08
2.24357e-06
2.08237e-07
2.24767e-06
1.96589e-07
2.25052e-06
3.66768e-08
2.25321e-06
8.72283e-08
2.24143e-06
-3.993e-07
2.24286e-06
-9.8793e-08
2.22257e-06
-5.00007e-07
2.22706e-06
-1.31669e-07
2.21629e-06
-1.36224e-07
2.22399e-06
-4.34e-08
2.22066e-06
8.26464e-08
2.2239e-06
6.09447e-08
2.22228e-06
1.35004e-07
2.22391e-06
1.97488e-07
2.18232e-07
2.22668e-06
2.33824e-06
-8.0487e-07
2.34623e-06
1.72782e-07
2.34428e-06
4.83483e-08
2.34434e-06
-8.72227e-08
2.34246e-06
9.42153e-08
2.35053e-06
2.00167e-07
2.35442e-06
1.92701e-07
2.35725e-06
3.38435e-08
2.36073e-06
8.3752e-08
2.34836e-06
-3.86929e-07
2.35045e-06
-1.00888e-07
2.329e-06
-4.7856e-07
2.33387e-06
-1.36533e-07
2.32202e-06
-1.24375e-07
2.32904e-06
-5.04252e-08
2.32553e-06
8.61629e-08
2.32679e-06
5.96857e-08
2.32639e-06
1.35405e-07
2.3266e-06
1.97273e-07
2.14429e-07
2.3304e-06
2.44994e-06
-7.88411e-07
2.4585e-06
1.64215e-07
2.45583e-06
5.10189e-08
2.45646e-06
-8.78546e-08
2.4541e-06
9.65774e-08
2.46272e-06
1.91547e-07
2.4665e-06
1.88924e-07
2.46924e-06
3.10988e-08
2.47333e-06
7.96706e-08
2.46028e-06
-3.73882e-07
2.46305e-06
-1.03664e-07
2.44056e-06
-4.56072e-07
2.44583e-06
-1.41802e-07
2.43335e-06
-1.11888e-07
2.43959e-06
-5.66709e-08
2.43659e-06
8.91615e-08
2.43577e-06
6.05144e-08
2.43682e-06
1.34351e-07
2.43619e-06
1.97906e-07
2.10273e-07
2.44034e-06
2.56695e-06
-7.71069e-07
2.57636e-06
1.54808e-07
2.57287e-06
5.45099e-08
2.57412e-06
-8.91094e-08
2.5713e-06
9.93992e-08
2.58036e-06
1.8249e-07
2.58411e-06
1.85177e-07
2.5867e-06
2.85094e-08
2.5913e-06
7.50665e-08
2.5775e-06
-3.60078e-07
2.58094e-06
-1.07107e-07
2.55755e-06
-4.32687e-07
2.56313e-06
-1.4738e-07
2.55045e-06
-9.9204e-08
2.55567e-06
-6.1891e-08
2.55376e-06
9.10674e-08
2.5509e-06
6.33739e-08
2.55328e-06
1.31977e-07
2.55248e-06
1.987e-07
2.06346e-07
2.55641e-06
2.68958e-06
-7.52819e-07
2.69998e-06
1.44401e-07
2.6956e-06
5.88985e-08
2.6975e-06
-9.1014e-08
2.69426e-06
1.02644e-07
2.70366e-06
1.73087e-07
2.70745e-06
1.81384e-07
2.7098e-06
2.61623e-08
2.71493e-06
6.99352e-08
2.7003e-06
-3.45453e-07
2.70437e-06
-1.11176e-07
2.68028e-06
-4.08592e-07
2.68595e-06
-1.53048e-07
2.67351e-06
-8.67688e-08
2.67737e-06
-6.57548e-08
2.67694e-06
9.15032e-08
2.6723e-06
6.80092e-08
2.67556e-06
1.28724e-07
2.67528e-06
1.98975e-07
2.03048e-07
2.67858e-06
2.81809e-06
-7.33644e-07
2.82959e-06
1.3291e-07
2.82425e-06
6.42314e-08
2.82681e-06
-9.3572e-08
2.82319e-06
1.06263e-07
2.83285e-06
1.63428e-07
2.83678e-06
1.77458e-07
2.83877e-06
2.41732e-08
2.84448e-06
6.42186e-08
2.829e-06
-3.29975e-07
2.83361e-06
-1.1578e-07
2.80906e-06
-3.84038e-07
2.81449e-06
-1.58482e-07
2.80273e-06
-7.50129e-08
2.80491e-06
-6.79301e-08
2.80609e-06
9.03262e-08
2.80011e-06
7.3982e-08
2.80369e-06
1.25149e-07
2.80445e-06
1.98209e-07
2.00542e-07
2.80696e-06
2.95279e-06
-7.13537e-07
2.96541e-06
1.20292e-07
2.95911e-06
7.05267e-08
2.9623e-06
-9.67641e-08
2.95838e-06
1.1019e-07
2.96818e-06
1.53624e-07
2.97235e-06
1.73286e-07
2.97385e-06
2.26786e-08
2.98022e-06
5.78476e-08
2.96391e-06
-3.13664e-07
2.9689e-06
-1.20769e-07
2.94421e-06
-3.59348e-07
2.94902e-06
-1.633e-07
2.93833e-06
-6.43149e-08
2.93858e-06
-6.81874e-08
2.94127e-06
8.76406e-08
2.93451e-06
8.07382e-08
2.9379e-06
1.21765e-07
2.94e-06
1.96108e-07
1.98768e-07
2.94177e-06
3.09397e-06
-6.92495e-07
3.10772e-06
1.06535e-07
3.10047e-06
7.77774e-08
3.10425e-06
-1.00546e-07
3.10011e-06
1.14332e-07
3.10992e-06
1.43819e-07
3.11448e-06
1.68724e-07
3.11534e-06
2.18194e-08
3.12241e-06
5.07736e-08
3.10535e-06
-2.96602e-07
3.11049e-06
-1.25908e-07
3.08606e-06
-3.34918e-07
3.08984e-06
-1.67086e-07
3.0805e-06
-5.49682e-08
3.07877e-06
-6.64572e-08
3.08266e-06
8.37503e-08
3.07569e-06
8.77073e-08
3.07852e-06
1.18932e-07
3.08201e-06
1.92617e-07
1.97481e-07
3.0833e-06
3.24194e-06
-6.70524e-07
3.25683e-06
9.16448e-08
3.24865e-06
8.5951e-08
3.25295e-06
-1.04845e-07
3.24872e-06
1.18569e-07
3.25834e-06
1.34194e-07
3.26346e-06
1.63602e-07
3.26355e-06
2.17312e-08
3.27134e-06
4.29896e-08
3.25368e-06
-2.78949e-07
3.25867e-06
-1.3089e-07
3.23493e-06
-3.1118e-07
3.23729e-06
-1.69453e-07
3.22946e-06
-4.71335e-08
3.22585e-06
-6.28455e-08
3.23053e-06
7.907e-08
3.22384e-06
9.43914e-08
3.22594e-06
1.16836e-07
3.2307e-06
1.87861e-07
1.9633e-07
3.23185e-06
3.39704e-06
-6.47635e-07
3.41304e-06
7.56467e-08
3.404e-06
9.49877e-08
3.40872e-06
-1.09558e-07
3.40455e-06
1.2274e-07
3.41376e-06
1.2498e-07
3.41964e-06
1.57718e-07
3.41884e-06
2.25302e-08
3.42728e-06
3.45538e-08
3.40928e-06
-2.6095e-07
3.41373e-06
-1.3534e-07
3.39112e-06
-2.88567e-07
3.39176e-06
-1.7009e-07
3.38543e-06
-4.08104e-08
3.3802e-06
-5.76087e-08
3.38525e-06
7.40149e-08
3.37923e-06
1.00412e-07
3.38052e-06
1.15548e-07
3.38632e-06
1.82057e-07
1.94947e-07
3.38771e-06
3.55963e-06
-6.23849e-07
3.57669e-06
5.85836e-08
3.56688e-06
1.04796e-07
3.57186e-06
-1.14542e-07
3.56796e-06
1.26646e-07
3.57648e-06
1.16454e-07
3.58335e-06
1.50848e-07
3.58159e-06
2.42972e-08
3.59053e-06
2.56094e-08
3.57252e-06
-2.42937e-07
3.57604e-06
-1.38865e-07
3.55489e-06
-2.67416e-07
3.55366e-06
-1.6886e-07
3.54866e-06
-3.58046e-08
3.54217e-06
-5.11202e-08
3.54724e-06
6.89459e-08
3.54214e-06
1.05513e-07
3.54262e-06
1.15067e-07
3.54922e-06
1.7545e-07
1.93007e-07
3.55116e-06
3.73006e-06
-5.992e-07
3.74812e-06
4.05197e-08
3.73767e-06
1.15248e-07
3.74274e-06
-1.19617e-07
3.73934e-06
1.3005e-07
3.74685e-06
1.08947e-07
3.75494e-06
1.42757e-07
3.75218e-06
2.70567e-08
3.76139e-06
1.63971e-08
3.74377e-06
-2.25317e-07
3.74598e-06
-1.41074e-07
3.72649e-06
-2.47931e-07
3.72346e-06
-1.65826e-07
3.71943e-06
-3.17745e-08
3.71212e-06
-4.38141e-08
3.71691e-06
6.41605e-08
3.71289e-06
1.09536e-07
3.71263e-06
1.15322e-07
3.71976e-06
1.68321e-07
1.90249e-07
3.72252e-06
3.90872e-06
-5.7373e-07
3.92769e-06
2.15438e-08
3.91677e-06
1.26174e-07
3.92171e-06
-1.24558e-07
3.91907e-06
1.32685e-07
3.92523e-06
1.02796e-07
3.93472e-06
1.33259e-07
3.93104e-06
3.07366e-08
3.94019e-06
7.24968e-09
3.9234e-06
-2.0853e-07
3.92397e-06
-1.4164e-07
3.90617e-06
-2.30132e-07
3.90158e-06
-1.61236e-07
3.89812e-06
-2.8317e-08
3.89037e-06
-3.60639e-08
3.89468e-06
5.9856e-08
3.89186e-06
1.12356e-07
3.89096e-06
1.16222e-07
3.8983e-06
1.60977e-07
1.86465e-07
3.90208e-06
4.09602e-06
-5.47501e-07
4.11579e-06
1.7718e-09
4.10461e-06
1.37362e-07
4.10914e-06
-1.29095e-07
4.10756e-06
1.34268e-07
4.11206e-06
9.82961e-08
4.12304e-06
1.22282e-07
4.11864e-06
3.51341e-08
4.12731e-06
-1.42185e-09
4.11177e-06
-1.92985e-07
4.11049e-06
-1.40363e-07
4.09421e-06
-2.1385e-07
4.08842e-06
-1.55448e-07
4.08518e-06
-2.50816e-08
4.07723e-06
-2.81091e-08
4.081e-06
5.60903e-08
4.07942e-06
1.1393e-07
4.07802e-06
1.17622e-07
4.08525e-06
1.53753e-07
1.81527e-07
4.09018e-06
4.29239e-06
-5.20587e-07
4.31281e-06
-1.86501e-08
4.30163e-06
1.48543e-07
4.30544e-06
-1.32912e-07
4.3052e-06
1.34515e-07
4.30782e-06
9.56734e-08
4.32021e-06
1.09889e-07
4.31542e-06
3.99262e-08
4.32317e-06
-9.17381e-09
4.3092e-06
-1.79011e-07
4.30604e-06
-1.37206e-07
4.29096e-06
-1.9877e-07
4.28435e-06
-1.48834e-07
4.2811e-06
-2.18354e-08
4.27308e-06
-2.00837e-08
4.27631e-06
5.286e-08
4.27596e-06
1.14272e-07
4.27429e-06
1.19296e-07
4.28102e-06
1.47023e-07
1.75401e-07
4.28715e-06
4.49827e-06
-4.9308e-07
4.51916e-06
-3.9541e-08
4.5083e-06
1.59398e-07
4.51104e-06
-1.35647e-07
4.51239e-06
1.33163e-07
4.51303e-06
9.5039e-08
4.52659e-06
9.63229e-08
4.52185e-06
4.46674e-08
4.52822e-06
-1.55421e-08
4.51601e-06
-1.66803e-07
4.51113e-06
-1.32329e-07
4.49687e-06
-1.84506e-07
4.48972e-06
-1.41689e-07
4.48642e-06
-1.85282e-08
4.47836e-06
-1.20221e-08
4.48104e-06
5.01785e-08
4.48189e-06
1.1342e-07
4.48022e-06
1.20964e-07
4.48613e-06
1.41114e-07
1.68224e-07
4.49331e-06
4.71413e-06
-4.65093e-07
4.73528e-06
-6.06896e-08
4.72512e-06
1.69557e-07
4.72639e-06
-1.36917e-07
4.72955e-06
1.30003e-07
4.72824e-06
9.63474e-08
4.74255e-06
8.20149e-08
4.73838e-06
4.88377e-08
4.74297e-06
-2.01376e-08
4.73251e-06
-1.56345e-07
4.72627e-06
-1.26083e-07
4.71239e-06
-1.70629e-07
4.70495e-06
-1.34252e-07
4.70168e-06
-1.52506e-08
4.69356e-06
-3.90959e-09
4.69566e-06
4.8083e-08
4.69762e-06
1.11458e-07
4.69625e-06
1.22332e-07
4.70114e-06
1.36222e-07
1.60327e-07
4.70904e-06
4.94046e-06
-4.36753e-07
4.96161e-06
-8.18461e-08
4.95257e-06
1.78604e-07
4.95199e-06
-1.36336e-07
4.95709e-06
1.24903e-07
4.95402e-06
9.94086e-08
4.9685e-06
6.75363e-08
4.96545e-06
5.18934e-08
4.96797e-06
-2.26625e-08
4.9591e-06
-1.4747e-07
4.95192e-06
-1.18905e-07
4.93804e-06
-1.56748e-07
4.93045e-06
-1.26663e-07
4.92736e-06
-1.2165e-08
4.91924e-06
4.21156e-09
4.92066e-06
4.66624e-08
4.9236e-06
1.08521e-07
4.92283e-06
1.23107e-07
4.92667e-06
1.32373e-07
1.52206e-07
4.9348e-06
5.17777e-06
-4.0821e-07
5.19865e-06
-1.02723e-07
5.19116e-06
1.86095e-07
5.18838e-06
-1.33559e-07
5.19542e-06
1.17865e-07
5.19096e-06
1.03871e-07
5.20494e-06
5.35541e-08
5.20349e-06
5.33427e-08
5.20383e-06
-2.30001e-08
5.19622e-06
-1.39856e-07
5.18854e-06
-1.11231e-07
5.1744e-06
-1.42603e-07
5.16664e-06
-1.18909e-07
5.16392e-06
-9.44444e-09
5.15596e-06
1.21753e-08
5.15659e-06
4.60262e-08
5.1603e-06
1.04811e-07
5.16034e-06
1.23067e-07
5.16334e-06
1.29372e-07
1.44428e-07
5.17112e-06
5.42661e-06
-3.79631e-07
5.44688e-06
-1.22998e-07
5.44139e-06
1.91593e-07
5.43616e-06
-1.28335e-07
5.445e-06
1.09028e-07
5.4396e-06
1.09275e-07
5.4524e-06
4.07538e-08
5.45293e-06
5.28063e-08
5.45117e-06
-2.12339e-08
5.44435e-06
-1.3304e-07
5.43669e-06
-1.0357e-07
5.42205e-06
-1.27966e-07
5.41402e-06
-1.10876e-07
5.41184e-06
-7.26177e-09
5.40425e-06
1.97666e-08
5.40403e-06
4.62393e-08
5.40825e-06
1.00597e-07
5.40923e-06
1.22083e-07
5.41171e-06
1.26894e-07
1.37438e-07
5.4187e-06
5.68753e-06
-3.51199e-07
5.70684e-06
-1.42311e-07
5.70372e-06
1.94713e-07
5.69595e-06
-1.20565e-07
5.7063e-06
9.8673e-08
5.70049e-06
1.15086e-07
5.71148e-06
2.97668e-08
5.71419e-06
5.00934e-08
5.71062e-06
-1.76643e-08
5.70401e-06
-1.26425e-07
5.69679e-06
-9.6354e-08
5.68177e-06
-1.12942e-07
5.67316e-06
-1.02269e-07
5.67163e-06
-5.73624e-09
5.66463e-06
2.67698e-08
5.66358e-06
4.7287e-08
5.66804e-06
9.61425e-08
5.66994e-06
1.20179e-07
5.67229e-06
1.24545e-07
1.31439e-07
5.67829e-06
5.96111e-06
-3.23113e-07
5.97906e-06
-1.60265e-07
5.97861e-06
1.95162e-07
5.96838e-06
-1.10338e-07
5.97986e-06
8.72029e-08
5.9742e-06
1.20739e-07
5.98288e-06
2.10841e-08
5.98769e-06
4.52872e-08
5.98282e-06
-1.27949e-08
5.9758e-06
-1.19403e-07
5.96926e-06
-8.98191e-08
5.95422e-06
-9.79016e-08
5.94482e-06
-9.28607e-08
5.94381e-06
-4.72525e-09
5.93766e-06
3.29201e-08
5.93583e-06
4.91099e-08
5.9403e-06
9.16798e-08
5.94303e-06
1.17446e-07
5.9455e-06
1.22068e-07
1.26313e-07
5.95063e-06
6.24796e-06
-2.9558e-07
6.26413e-06
-1.76437e-07
6.26653e-06
1.92762e-07
6.25413e-06
-9.79435e-08
6.26625e-06
7.50897e-08
6.26127e-06
1.25712e-07
6.26738e-06
1.49813e-08
6.2739e-06
3.87616e-08
6.26837e-06
-7.26572e-09
6.26041e-06
-1.11442e-07
6.2546e-06
-8.40062e-08
6.23999e-06
-8.32912e-08
6.22975e-06
-8.2619e-08
6.22898e-06
-3.96009e-09
6.22388e-06
3.802e-08
6.22141e-06
5.15833e-08
6.22566e-06
8.74234e-08
6.22912e-06
1.13994e-07
6.23186e-06
1.19326e-07
1.21764e-07
6.23641e-06
6.5487e-06
-2.68814e-07
6.56264e-06
-1.90374e-07
6.56795e-06
1.87449e-07
6.55387e-06
-8.38569e-08
6.56611e-06
6.28448e-08
6.56228e-06
1.2954e-07
6.56574e-06
1.15254e-08
6.57336e-06
3.11409e-08
6.56785e-06
-1.75765e-09
6.5586e-06
-1.02194e-07
6.55331e-06
-7.87176e-08
6.53962e-06
-6.96007e-08
6.52865e-06
-7.16496e-08
6.52784e-06
-3.14143e-09
6.52391e-06
4.195e-08
6.52097e-06
5.45153e-08
6.52478e-06
8.36211e-08
6.5289e-06
1.09872e-07
6.53192e-06
1.163e-07
1.17487e-07
6.5362e-06
6.864e-06
-2.43024e-07
6.87522e-06
-2.01591e-07
6.88342e-06
1.79251e-07
6.86827e-06
-6.87129e-08
6.88012e-06
5.09984e-08
6.87782e-06
1.31838e-07
6.87873e-06
1.0617e-08
6.88672e-06
2.31471e-08
6.88176e-06
3.20382e-09
6.87129e-06
-9.17267e-08
6.86613e-06
-7.3557e-08
6.8536e-06
-5.70658e-08
6.84222e-06
-6.02698e-08
6.8411e-06
-2.02234e-09
6.83833e-06
4.47182e-08
6.83521e-06
5.76357e-08
6.83835e-06
8.04818e-08
6.84297e-06
1.05251e-07
6.8464e-06
1.12877e-07
1.13358e-07
6.85053e-06
7.19452e-06
-2.18411e-07
7.20253e-06
-2.09596e-07
7.21351e-06
1.68267e-07
7.19805e-06
-5.32504e-08
7.20902e-06
4.00311e-08
7.20846e-06
1.32395e-07
7.20712e-06
1.1959e-08
7.21479e-06
1.54761e-08
7.21066e-06
7.33228e-09
7.19936e-06
-8.04285e-08
7.19391e-06
-6.81086e-08
7.18257e-06
-4.57211e-08
7.17103e-06
-4.87305e-08
7.16954e-06
-5.35745e-10
7.16783e-06
4.64347e-08
7.16482e-06
6.06384e-08
7.16715e-06
7.81603e-08
7.17202e-06
1.00379e-07
7.17592e-06
1.08969e-07
1.09267e-07
7.18002e-06
7.54097e-06
-1.95153e-07
7.54539e-06
-2.14015e-07
7.5589e-06
1.54751e-07
7.5439e-06
-3.82439e-08
7.55358e-06
3.03492e-08
7.55478e-06
1.31196e-07
7.55166e-06
1.50733e-08
7.55838e-06
8.75951e-09
7.55523e-06
1.04868e-08
7.54346e-06
-6.86639e-08
7.5376e-06
-6.22516e-08
7.52731e-06
-3.54278e-08
7.51574e-06
-3.71581e-08
7.51384e-06
1.36239e-09
7.51312e-06
4.71594e-08
7.51046e-06
6.32928e-08
7.51201e-06
7.66149e-08
7.51681e-06
9.55757e-08
7.52114e-06
1.04638e-07
1.05042e-07
7.52537e-06
7.90406e-06
-1.73398e-07
7.90476e-06
-2.14715e-07
7.92034e-06
1.39166e-07
7.90652e-06
-2.44202e-08
7.91461e-06
2.22538e-08
7.91737e-06
1.28439e-07
7.91312e-06
1.93282e-08
7.91847e-06
3.40452e-09
7.91601e-06
1.29421e-08
7.90423e-06
-5.68757e-08
7.89802e-06
-5.60441e-08
7.8887e-06
-2.61095e-08
7.87715e-06
-2.56095e-08
7.8747e-06
3.81148e-09
7.87489e-06
4.69725e-08
7.87285e-06
6.53373e-08
7.87374e-06
7.57161e-08
7.87821e-06
9.11147e-08
7.88278e-06
1.00061e-07
1.00559e-07
7.88727e-06
8.28453e-06
-1.53249e-07
8.28164e-06
-2.11827e-07
8.29861e-06
1.22196e-07
8.28661e-06
-1.24111e-08
8.29299e-06
1.58695e-08
8.29695e-06
1.24483e-07
8.29212e-06
2.41554e-08
8.29606e-06
-5.3461e-10
8.29383e-06
1.51669e-08
8.28223e-06
-4.5278e-08
8.27587e-06
-4.96816e-08
8.26764e-06
-1.78786e-08
8.2562e-06
-1.41714e-08
8.25292e-06
7.09227e-09
8.25387e-06
4.60218e-08
8.25274e-06
6.64696e-08
8.25313e-06
7.533e-08
8.25711e-06
8.71292e-08
8.26171e-06
9.5463e-08
9.58887e-08
8.26638e-06
8.68317e-06
-1.34761e-07
8.67708e-06
-2.05735e-07
8.69458e-06
1.04698e-07
8.68484e-06
-2.67354e-09
8.68962e-06
1.10933e-08
8.69433e-06
1.19771e-07
8.68931e-06
2.91786e-08
8.69208e-06
-3.30903e-09
8.68975e-06
1.74975e-08
8.67817e-06
-3.36983e-08
8.67185e-06
-4.33629e-08
8.66493e-06
-1.0955e-08
8.65385e-06
-3.09495e-09
8.64945e-06
1.14903e-08
8.65082e-06
4.4654e-08
8.65085e-06
6.64378e-08
8.65098e-06
7.52089e-08
8.65441e-06
8.36928e-08
8.65891e-06
9.09639e-08
9.12844e-08
8.66352e-06
9.10079e-06
-1.17936e-07
9.09208e-06
-1.97026e-07
9.10919e-06
8.75904e-08
9.10195e-06
4.57084e-09
9.10546e-06
7.57991e-09
9.11043e-06
1.14804e-07
9.10541e-06
3.41949e-08
9.10736e-06
-5.25715e-09
9.10488e-06
1.99752e-08
9.09298e-06
-2.17998e-08
9.08664e-06
-3.70209e-08
9.08123e-06
-5.54497e-09
9.07098e-06
7.15838e-09
9.06544e-06
1.70317e-08
9.06666e-06
4.34291e-08
9.06781e-06
6.52864e-08
9.0682e-06
7.4824e-08
9.07098e-06
8.09158e-08
9.0753e-06
8.66394e-08
8.69139e-08
9.07967e-06
9.53824e-06
-1.0272e-07
9.52763e-06
-1.86407e-07
9.54348e-06
7.17351e-08
9.53871e-06
9.33683e-09
9.54143e-06
4.85936e-09
9.54629e-06
1.09947e-07
9.54115e-06
3.93336e-08
9.54268e-06
-6.78308e-09
9.5404e-06
2.2252e-08
9.52785e-06
-9.24448e-09
9.52098e-06
-3.01508e-08
9.51728e-06
-1.84425e-09
9.50839e-06
1.6044e-08
9.50195e-06
2.34728e-08
9.5024e-06
4.29811e-08
9.50443e-06
6.32507e-08
9.50555e-06
7.37062e-08
9.50773e-06
7.87396e-08
9.5118e-06
8.25694e-08
8.27941e-08
9.51592e-06
9.99643e-06
-8.90104e-08
9.9846e-06
-1.74581e-07
9.99857e-06
5.77664e-08
9.99599e-06
1.1918e-08
9.99843e-06
2.41388e-09
1.00031e-05
1.05286e-07
9.99745e-06
4.49802e-08
9.99873e-06
-8.07122e-09
9.99732e-06
2.36624e-08
9.98413e-06
3.95007e-09
9.976e-06
-2.20246e-08
9.97374e-06
4.17024e-10
9.96687e-06
2.29183e-08
9.95997e-06
3.03694e-08
9.95925e-06
4.36985e-08
9.96171e-06
6.07932e-08
9.96368e-06
7.17391e-08
9.96572e-06
7.67031e-08
9.96935e-06
7.89338e-08
7.88002e-08
9.97334e-06
1.04763e-05
-7.66626e-08
1.04639e-05
-1.62204e-07
1.04756e-05
4.60542e-08
1.04747e-05
1.28623e-08
1.04774e-05
-2.56703e-10
1.04819e-05
1.00749e-07
1.04755e-05
5.13985e-08
1.04762e-05
-8.83764e-09
1.04765e-05
2.34034e-08
1.04632e-05
1.72162e-08
1.04531e-05
-1.19259e-08
1.04515e-05
2.02958e-09
1.04471e-05
2.73868e-08
1.04404e-05
3.70056e-08
1.04385e-05
4.55976e-08
1.04408e-05
5.85573e-08
1.04435e-05
6.90195e-08
1.04459e-05
7.42849e-08
1.0449e-05
7.57883e-08
7.48803e-08
1.0453e-05
1.09789e-05
-6.55061e-08
1.09665e-05
-1.49851e-07
1.09759e-05
3.67026e-08
1.09759e-05
1.2858e-08
1.09791e-05
-3.47326e-09
1.09838e-05
9.6047e-08
1.09765e-05
5.86756e-08
1.09762e-05
-8.49599e-09
1.09786e-05
2.10153e-08
1.09663e-05
2.94378e-08
1.09539e-05
4.66046e-10
1.09518e-05
4.12797e-09
1.09497e-05
2.95284e-08
1.09442e-05
4.25239e-08
1.09413e-05
4.8447e-08
1.09428e-05
5.70968e-08
1.0946e-05
6.58366e-08
1.0949e-05
7.12323e-08
1.0952e-05
7.281e-08
7.11485e-08
1.09557e-05
1.15052e-05
-5.53743e-08
1.14934e-05
-1.37989e-07
1.15005e-05
2.96058e-08
1.15007e-05
1.26143e-08
1.15046e-05
-7.3368e-09
1.15098e-05
9.07753e-08
1.15019e-05
6.66223e-08
1.14997e-05
-6.25076e-09
1.15042e-05
1.65017e-08
1.14942e-05
3.94234e-08
1.148e-05
1.46212e-08
1.14761e-05
8.02363e-09
1.14758e-05
2.98213e-08
1.14721e-05
4.62622e-08
1.14687e-05
5.18219e-08
1.14692e-05
5.65822e-08
1.14723e-05
6.27269e-08
1.1476e-05
6.7613e-08
1.14792e-05
6.95889e-08
6.76988e-08
1.14826e-05
1.20566e-05
-4.61245e-08
1.20455e-05
-1.26904e-07
1.20507e-05
2.44153e-08
1.20505e-05
1.28037e-08
1.20548e-05
-1.16541e-08
1.20611e-05
8.44817e-08
1.20529e-05
7.48076e-08
1.20482e-05
-1.5381e-09
1.2054e-05
1.06724e-08
1.20475e-05
4.59487e-08
1.20326e-05
2.9552e-08
1.20262e-05
1.44133e-08
1.20267e-05
2.93436e-08
1.2025e-05
4.79188e-08
1.20218e-05
5.50384e-08
1.20214e-05
5.69387e-08
1.20239e-05
6.02323e-08
1.20278e-05
6.36903e-08
1.20315e-05
6.59005e-08
6.43808e-08
1.20349e-05
1.26341e-05
-3.76547e-08
1.26239e-05
-1.16713e-07
1.26277e-05
2.0651e-08
1.26265e-05
1.39619e-08
1.26309e-05
-1.60566e-08
1.26385e-05
7.68859e-08
1.26308e-05
8.25479e-08
1.26234e-05
5.85645e-09
1.26292e-05
4.89794e-09
1.26269e-05
4.81746e-08
1.26126e-05
4.38754e-08
1.26038e-05
2.32811e-08
1.26037e-05
2.94276e-08
1.26039e-05
4.77159e-08
1.26017e-05
5.72249e-08
1.26006e-05
5.80044e-08
1.26023e-05
5.8586e-08
1.26061e-05
5.99072e-08
1.26102e-05
6.17375e-08
6.0927e-08
1.26137e-05
1.32392e-05
-2.99047e-08
1.32298e-05
-1.07377e-07
1.32327e-05
1.77645e-08
1.32303e-05
1.63914e-08
1.32342e-05
-1.99758e-08
1.32433e-05
6.78577e-08
1.32368e-05
8.90421e-08
1.32269e-05
1.57496e-08
1.32311e-05
6.54696e-10
1.32332e-05
4.61022e-08
1.32211e-05
5.59149e-08
1.32102e-05
3.41805e-08
1.32085e-05
3.11192e-08
1.32101e-05
4.62106e-08
1.32094e-05
5.78538e-08
1.32082e-05
5.92651e-08
1.3209e-05
5.77024e-08
1.32122e-05
5.67469e-08
1.32166e-05
5.73295e-08
5.70842e-08
1.32205e-05
1.38731e-05
-2.28711e-08
1.38645e-05
-9.87012e-08
1.3867e-05
1.52516e-08
1.38633e-05
2.00338e-08
1.3866e-05
-2.26523e-08
1.38764e-05
5.74724e-08
1.38719e-05
9.35117e-08
1.38602e-05
2.74898e-08
1.38615e-05
-6.72739e-10
1.38671e-05
4.05407e-08
1.38588e-05
6.41631e-08
1.38469e-05
4.61103e-08
1.38431e-05
3.48606e-08
1.3845e-05
4.43314e-08
1.3846e-05
5.6889e-08
1.38453e-05
5.99764e-08
1.38457e-05
5.72434e-08
1.38481e-05
5.43477e-08
1.38525e-05
5.30107e-08
5.28983e-08
1.38566e-05
1.45374e-05
-1.65936e-08
1.45291e-05
-9.03686e-08
1.45317e-05
1.26248e-08
1.4527e-05
2.46832e-08
1.45278e-05
-2.3435e-08
1.45393e-05
4.60296e-08
1.45374e-05
9.53322e-08
1.45247e-05
4.02318e-08
1.45225e-05
1.48218e-09
1.45299e-05
3.31741e-08
1.45264e-05
6.77002e-08
1.45149e-05
5.76152e-08
1.45091e-05
4.0578e-08
1.45105e-05
4.29886e-08
1.45127e-05
5.46368e-08
1.45131e-05
5.96381e-08
1.45134e-05
5.6928e-08
1.45152e-05
5.25901e-08
1.4519e-05
4.92046e-08
4.84535e-08
1.45234e-05
1.52334e-05
-1.11521e-08
1.52251e-05
-8.20244e-08
1.52281e-05
9.57988e-09
1.52229e-05
2.98871e-08
1.52214e-05
-2.18919e-08
1.52332e-05
3.42113e-08
1.52344e-05
9.41333e-08
1.52218e-05
5.28259e-08
1.52162e-05
7.09355e-09
1.52234e-05
2.59887e-08
1.52246e-05
6.65168e-08
1.52151e-05
6.7055e-08
1.5208e-05
4.77386e-08
1.5208e-05
4.29421e-08
1.52112e-05
5.1462e-08
1.52128e-05
5.80262e-08
1.52133e-05
5.64131e-08
1.52148e-05
5.11532e-08
1.52176e-05
4.63518e-08
4.39919e-08
1.52221e-05
1.59628e-05
-6.62453e-09
1.59542e-05
-7.33794e-08
1.59577e-05
6.04292e-09
1.59525e-05
3.50347e-08
1.59485e-05
-1.7849e-08
1.59599e-05
2.28583e-08
1.59641e-05
8.98929e-08
1.59528e-05
6.41607e-08
1.59443e-05
1.55303e-08
1.59495e-05
2.08349e-08
1.59547e-05
6.13102e-08
1.59487e-05
7.30853e-08
1.59409e-05
5.54775e-08
1.59394e-05
4.44482e-08
1.59428e-05
4.81026e-08
1.59457e-05
5.50505e-08
1.59469e-05
5.52832e-08
1.59481e-05
4.99492e-08
1.59502e-05
4.42186e-08
4.02242e-08
1.5954e-05
1.6727e-05
-3.06954e-09
1.67179e-05
-6.42472e-08
1.67218e-05
2.17532e-09
1.67174e-05
3.9437e-08
1.6711e-05
-1.14527e-08
1.67209e-05
1.29727e-08
1.67279e-05
8.28634e-08
1.67188e-05
7.3258e-08
1.67086e-05
2.57039e-08
1.67106e-05
1.88657e-08
1.67183e-05
5.36502e-08
1.67164e-05
7.49338e-08
1.67092e-05
6.26797e-08
1.67064e-05
4.72372e-08
1.6709e-05
4.5481e-08
1.6713e-05
5.10661e-08
1.67152e-05
5.31047e-08
1.67163e-05
4.88772e-08
1.6718e-05
4.25145e-08
3.75589e-08
1.67206e-05
1.75278e-05
-4.91914e-10
1.75182e-05
-5.46353e-08
1.7522e-05
-1.65527e-09
1.75189e-05
4.24962e-08
1.75107e-05
-3.18498e-09
1.75181e-05
5.53771e-09
1.75274e-05
7.35313e-08
1.75212e-05
7.94514e-08
1.75105e-05
3.64666e-08
1.75092e-05
2.0101e-08
1.75172e-05
4.56953e-08
1.75195e-05
7.26274e-08
1.75141e-05
6.80412e-08
1.75104e-05
5.099e-08
1.75118e-05
4.40906e-08
1.75161e-05
4.67992e-08
1.75193e-05
4.98395e-08
1.75207e-05
4.75421e-08
1.75218e-05
4.13705e-08
3.57589e-08
1.75236e-05
1.83667e-05
1.15299e-09
1.83568e-05
-4.47047e-08
1.83601e-05
-4.95387e-09
1.83587e-05
4.38219e-08
1.83494e-05
6.14037e-09
1.83536e-05
1.3181e-09
1.83644e-05
6.27852e-08
1.83616e-05
8.22338e-08
1.83513e-05
4.67741e-08
1.83475e-05
2.38941e-08
1.8354e-05
3.9204e-08
1.83595e-05
6.71689e-08
1.8357e-05
7.04883e-08
1.83529e-05
5.51349e-08
1.8353e-05
4.39715e-08
1.83567e-05
4.31063e-08
1.83605e-05
4.59966e-08
1.83625e-05
4.55353e-08
1.83632e-05
4.0644e-08
3.45354e-08
1.83645e-05
1.92456e-05
1.97496e-09
1.92356e-05
-3.47419e-08
1.92379e-05
-7.2776e-09
1.92384e-05
4.33679e-08
1.9229e-05
1.55561e-08
1.92297e-05
5.55536e-10
1.92408e-05
5.17392e-08
1.92415e-05
8.15586e-08
1.92325e-05