/*--------------------------------*- C++ -*----------------------------------*\
| =========                 |                                                 |
| \\      /  F ield         | OpenFOAM: The Open Source CFD Toolbox           |
|  \\    /   O peration     | Version:  3.0.1                                 |
|   \\  /    A nd           | Web:      www.OpenFOAM.org                      |
|    \\/     M anipulation  |                                                 |
\*---------------------------------------------------------------------------*/
FoamFile
{
    version     2.0;
    format      ascii;
    class       volVectorField;
    location    "0.5";
    object      U;
}
// * * * * * * * * * * * * * * * * * * * * * * * * * * * * * * * * * * * * * //

dimensions      [0 1 -1 0 0 0 0];

internalField   nonuniform List<vector> 
9600
(
(0.870378 -0.00919217 0)
(1.12983 0.00457738 0)
(0.878297 0.000810105 0)
(1.14112 -0.000581857 0)
(0.900379 0.00195146 0)
(1.14667 0.0033244 0)
(0.899116 0.00222016 0)
(1.10212 0.0015129 0)
(0.944839 -0.000124815 0)
(1.09347 -0.0125074 0)
(0.929449 -9.59894e-05 0)
(1.13005 -0.0172267 0)
(0.907477 0.000499977 0)
(1.15557 -0.00469305 0)
(0.882147 0.000445009 0)
(1.14463 0.00420375 0)
(0.866894 0.00278239 0)
(1.13533 0.00548903 0)
(0.857142 0.00936439 0)
(1.12729 0.00697313 0)
(0.881688 -0.00926715 0)
(1.12288 0.0046351 0)
(0.896006 0.000545044 0)
(1.13037 -0.00059125 0)
(0.918231 0.00170789 0)
(1.13175 0.00349326 0)
(0.922718 0.00255195 0)
(1.08501 0.00112687 0)
(0.966511 -0.000233294 0)
(1.06889 -0.011992 0)
(0.950097 -0.00113138 0)
(1.09696 -0.0165272 0)
(0.932501 -0.000386338 0)
(1.11569 -0.00389189 0)
(0.925976 0.000461669 0)
(1.09119 0.00465537 0)
(0.936433 0.0032197 0)
(1.058 0.00521832 0)
(0.958329 0.0107883 0)
(1.01019 0.00550714 0)
(0.899248 -0.00934742 0)
(1.10717 0.00460731 0)
(0.92601 0.000393073 0)
(1.10883 -0.000627963 0)
(0.949296 0.00154811 0)
(1.10579 0.00361672 0)
(0.958508 0.00290062 0)
(1.06161 0.000805201 0)
(0.992032 -0.000104075 0)
(1.03973 -0.0116809 0)
(0.97594 -0.00164863 0)
(1.05918 -0.0161533 0)
(0.967596 -0.000865723 0)
(1.07038 -0.0037108 0)
(0.97717 0.000875653 0)
(1.04195 0.00447932 0)
(0.989434 0.00390554 0)
(1.01585 0.00489318 0)
(0.995653 0.0114317 0)
(0.998036 0.00629882 0)
(0.920028 -0.00941037 0)
(1.08454 0.00443379 0)
(0.958514 0.00031858 0)
(1.08064 -0.000722184 0)
(0.981622 0.00149384 0)
(1.07697 0.00361883 0)
(0.990813 0.00323982 0)
(1.04169 0.000590873 0)
(1.00946 0.000132301 0)
(1.01662 -0.0113997 0)
(0.993692 -0.00194443 0)
(1.02898 -0.0160152 0)
(0.991879 -0.0011026 0)
(1.04042 -0.00392055 0)
(1.0066 0.00138832 0)
(1.02295 0.00424565 0)
(1.0109 0.00439009 0)
(1.0116 0.00486432 0)
(1.00556 0.0117173 0)
(1.00821 0.0071714 0)
(0.940896 -0.009436 0)
(1.05951 0.00413276 0)
(0.985086 0.000321001 0)
(1.0526 -0.000851855 0)
(1.0052 0.00146142 0)
(1.05181 0.00358188 0)
(1.01077 0.00352215 0)
(1.02848 0.000513615 0)
(1.01615 0.000437128 0)
(1.00273 -0.011115 0)
(1.00065 -0.00214584 0)
(1.0094 -0.0159434 0)
(1.0009 -0.00140607 0)
(1.0239 -0.00420113 0)
(1.01585 0.00166272 0)
(1.01959 0.00412574 0)
(1.01833 0.00466002 0)
(1.01614 0.00500157 0)
(1.01311 0.0118723 0)
(1.0159 0.00776855 0)
(0.959231 -0.00941537 0)
(1.0367 0.00376418 0)
(1.00176 0.000367516 0)
(1.03019 -0.000980485 0)
(1.01672 0.00141839 0)
(1.03279 0.00356457 0)
(1.01813 0.00370352 0)
(1.02026 0.000553132 0)
(1.0157 0.000769244 0)
(0.996023 -0.0108425 0)
(1.00103 -0.00226429 0)
(0.998163 -0.0158742 0)
(1.00044 -0.0017841 0)
(1.01327 -0.00446165 0)
(1.01481 0.00162036 0)
(1.01788 0.0040034 0)
(1.0204 0.00473989 0)
(1.01882 0.00511032 0)
(1.01856 0.0118194 0)
(1.02076 0.0083318 0)
(0.973633 -0.00935213 0)
(1.01894 0.00339171 0)
(1.00906 0.000425545 0)
(1.0152 -0.00108038 0)
(1.0185 0.0013659 0)
(1.01937 0.00357182 0)
(1.0173 0.0037882 0)
(1.01456 0.000651059 0)
(1.01259 0.00108265 0)
(0.993649 -0.0105833 0)
(0.999357 -0.00231363 0)
(0.992497 -0.0157764 0)
(0.996692 -0.00215729 0)
(1.00505 -0.00472431 0)
(1.01 0.00138534 0)
(1.01426 0.00380045 0)
(1.01911 0.00463748 0)
(1.0186 0.00516858 0)
(1.0203 0.0115986 0)
(1.02256 0.00893247 0)
(0.983955 -0.00925706 0)
(1.00681 0.0030622 0)
(1.00997 0.000472531 0)
(1.00648 -0.00114263 0)
(1.01492 0.00131586 0)
(1.01013 0.00358923 0)
(1.01307 0.00380433 0)
(1.01023 0.000752732 0)
(1.00951 0.00134684 0)
(0.993632 -0.0103373 0)
(0.997951 -0.00232292 0)
(0.990354 -0.0156226 0)
(0.993047 -0.0024828 0)
(0.998772 -0.00495661 0)
(1.00452 0.00106386 0)
(1.00943 0.00351721 0)
(1.01554 0.00441294 0)
(1.01603 0.00521011 0)
(1.01875 0.0112711 0)
(1.02131 0.00952945 0)
(0.990847 -0.0091416 0)
(0.999421 0.00279517 0)
(1.00771 0.000499201 0)
(1.00184 -0.0011714 0)
(1.0097 0.00128046 0)
(1.004 0.00360254 0)
(1.00859 0.00377364 0)
(1.00704 0.000825355 0)
(1.00741 0.00154797 0)
(0.994735 -0.0101058 0)
(0.997382 -0.00231083 0)
(0.99025 -0.0154064 0)
(0.99058 -0.00274763 0)
(0.99448 -0.00510947 0)
(0.999696 0.000688649 0)
(1.00449 0.00322388 0)
(1.01084 0.00411662 0)
(1.01193 0.00524066 0)
(1.01499 0.0108689 0)
(1.01781 0.0100755 0)
(0.995238 -0.00901461 0)
(0.995368 0.00258761 0)
(1.00458 0.000510728 0)
(0.999476 -0.00117828 0)
(1.00488 0.00126255 0)
(1.00023 0.00359996 0)
(1.00515 0.00371179 0)
(1.00486 0.000859578 0)
(1.00628 0.00168685 0)
(0.996189 -0.00988376 0)
(0.997429 -0.00229002 0)
(0.991115 -0.0151306 0)
(0.989231 -0.00294986 0)
(0.991888 -0.00517202 0)
(0.995931 0.000293126 0)
(1.00007 0.00298621 0)
(1.00594 0.00377034 0)
(1.00713 0.00527434 0)
(1.01011 0.0104371 0)
(1.01308 0.0105381 0)
(0.99798 -0.00888188 0)
(0.99337 0.0024271 0)
(1.0017 0.000514332 0)
(0.998306 -0.00117312 0)
(1.00113 0.00125728 0)
(0.998176 0.00357488 0)
(1.00294 0.00363266 0)
(1.00343 0.00085941 0)
(1.00573 0.00177267 0)
(0.997576 -0.00966466 0)
(0.997702 -0.00227037 0)
(0.992271 -0.0147984 0)
(0.988597 -0.00310637 0)
(0.990468 -0.00514586 0)
(0.993167 -8.77389e-05 0)
(0.996352 0.00282559 0)
(1.00139 0.00340679 0)
(1.00229 0.00533706 0)
(1.00494 0.010023 0)
(1.00796 0.0108866 0)
(0.999704 -0.00874628 0)
(0.992481 0.00230028 0)
(0.999434 0.000515891 0)
(0.997768 -0.00116218 0)
(0.998453 0.00125887 0)
(0.997181 0.00352552 0)
(1.00163 0.00354768 0)
(1.00242 0.000834006 0)
(1.00539 0.0018165 0)
(0.998716 -0.0094428 0)
(0.997911 -0.00225738 0)
(0.993372 -0.0144159 0)
(0.988315 -0.00323701 0)
(0.989721 -0.00503259 0)
(0.991199 -0.000440925 0)
(0.993323 0.00274618 0)
(0.997445 0.00306401 0)
(0.997882 0.0054346 0)
(1.00009 0.00966113 0)
(1.00309 0.0111018 0)
(1.0008 -0.00860833 0)
(0.992107 0.0021957 0)
(0.997769 0.000520791 0)
(0.997565 -0.00114929 0)
(0.996619 0.00126477 0)
(0.996725 0.00345322 0)
(1.00087 0.00346493 0)
(1.00165 0.000792927 0)
(1.00504 0.00182558 0)
(0.999562 -0.00921459 0)
(0.997945 -0.00225432 0)
(0.994276 -0.0139897 0)
(0.988184 -0.00335502 0)
(0.989313 -0.00484065 0)
(0.989849 -0.000763321 0)
(0.990937 0.00274703 0)
(0.99426 0.00276684 0)
(0.994182 0.00555002 0)
(0.995936 0.00938066 0)
(0.998874 0.0111831 0)
(1.0015 -0.00846706 0)
(0.991944 0.0021047 0)
(0.99661 0.000529061 0)
(0.997525 -0.00113766 0)
(0.995426 0.0012751 0)
(0.996488 0.00336156 0)
(1.00039 0.00338798 0)
(1.00104 0.000743382 0)
(1.00462 0.0018048 0)
(1.00013 -0.00897815 0)
(0.997829 -0.00226495 0)
(0.994945 -0.0135229 0)
(0.988142 -0.00347267 0)
(0.989074 -0.00458083 0)
(0.989007 -0.00105382 0)
(0.989173 0.0028165 0)
(0.991891 0.00253186 0)
(0.991376 0.00565668 0)
(0.992722 0.00919929 0)
(0.995584 0.011144 0)
(1.00193 -0.00832078 0)
(0.991872 0.00202005 0)
(0.995849 0.000541823 0)
(0.997549 -0.00112969 0)
(0.994712 0.00129113 0)
(0.996334 0.0032542 0)
(1.00007 0.00331767 0)
(1.00059 0.000690517 0)
(1.00418 0.00176073 0)
(1.00046 -0.00873134 0)
(0.997642 -0.00229068 0)
(0.995393 -0.0130211 0)
(0.98819 -0.00359613 0)
(0.988939 -0.00427089 0)
(0.988583 -0.0013158 0)
(0.988004 0.00293299 0)
(0.990312 0.00236811 0)
(0.989513 0.00572592 0)
(0.990516 0.00911828 0)
(0.993307 0.0110156 0)
(1.00215 -0.00816781 0)
(0.991861 0.00193556 0)
(0.995387 0.000561568 0)
(0.997591 -0.00112715 0)
(0.994341 0.00131408 0)
(0.996229 0.00313426 0)
(0.999855 0.00325255 0)
(1.0003 0.00063797 0)
(1.00378 0.00169859 0)
(1.0006 -0.00847255 0)
(0.997451 -0.00233178 0)
(0.995658 -0.0124876 0)
(0.988332 -0.0037296 0)
(0.988885 -0.00392493 0)
(0.988479 -0.00156087 0)
(0.987353 0.00306654 0)
(0.989403 0.00228532 0)
(0.988495 0.0057378 0)
(0.989227 0.0091165 0)
(0.991955 0.0108344 0)
(1.00225 -0.00800688 0)
(0.991907 0.0018464 0)
(0.995133 0.000589131 0)
(0.997635 -0.00113192 0)
(0.994196 0.0013444 0)
(0.996173 0.00300471 0)
(0.999705 0.00318958 0)
(1.00013 0.000586886 0)
(1.00344 0.00162405 0)
(1.00063 -0.00820033 0)
(0.99729 -0.00239034 0)
(0.995794 -0.0119223 0)
(0.988556 -0.00387525 0)
(0.988896 -0.00355213 0)
(0.988588 -0.00178721 0)
(0.987096 0.00318716 0)
(0.988982 0.00229274 0)
(0.988119 0.00569158 0)
(0.988644 0.00915968 0)
(0.991313 0.010632 0)
(1.00226 -0.00783721 0)
(0.992001 0.00174893 0)
(0.995008 0.000626056 0)
(0.997679 -0.00114449 0)
(0.994185 0.00138156 0)
(0.99616 0.00286841 0)
(0.999601 0.00312662 0)
(1.00003 0.000537081 0)
(1.00316 0.00153813 0)
(1.00059 -0.00791118 0)
(0.997163 -0.00246633 0)
(0.995853 -0.0113303 0)
(0.988834 -0.00402986 0)
(0.988956 -0.00316821 0)
(0.988817 -0.00198177 0)
(0.987099 0.00326892 0)
(0.988864 0.00238613 0)
(0.988159 0.00559593 0)
(0.988524 0.00921156 0)
(0.991129 0.0104405 0)
(1.00224 -0.00765839 0)
(0.992129 0.00164091 0)
(0.994954 0.000673267 0)
(0.997724 -0.00116502 0)
(0.994241 0.00142492 0)
(0.996177 0.00272589 0)
(0.999526 0.0030644 0)
(0.999979 0.000491296 0)
(1.00292 0.00143929 0)
(1.00052 -0.00760449 0)
(0.99706 -0.00255807 0)
(0.99587 -0.0107192 0)
(0.989146 -0.00418468 0)
(0.989048 -0.00278576 0)
(0.989101 -0.00213148 0)
(0.987253 0.00329408 0)
(0.988907 0.00255407 0)
(0.988426 0.00546639 0)
(0.988665 0.00923834 0)
(0.991192 0.0102799 0)
(1.0022 -0.0074703 0)
(0.992278 0.00152118 0)
(0.994932 0.000731591 0)
(0.997771 -0.0011946 0)
(0.994328 0.00147451 0)
(0.996212 0.00257788 0)
(0.999466 0.00300176 0)
(0.999942 0.000452638 0)
(1.0027 0.00133302 0)
(1.00043 -0.00727764 0)
(0.996973 -0.00266508 0)
(0.995868 -0.0100924 0)
(0.989475 -0.00434289 0)
(0.989158 -0.00241855 0)
(0.989404 -0.00222724 0)
(0.987489 0.00325627 0)
(0.989021 0.00277962 0)
(0.988797 0.00532468 0)
(0.988937 0.00921628 0)
(0.991361 0.010151 0)
(1.00215 -0.00727294 0)
(0.99244 0.00138925 0)
(0.994924 0.000801404 0)
(0.99782 -0.0012329 0)
(0.994427 0.00152925 0)
(0.996255 0.00242766 0)
(0.999416 0.00293509 0)
(0.999909 0.000419581 0)
(1.00248 0.00121545 0)
(1.00034 -0.00692963 0)
(0.996897 -0.00278259 0)
(0.995857 -0.00945937 0)
(0.989815 -0.00449329 0)
(0.989283 -0.00208112 0)
(0.989708 -0.0022599 0)
(0.987775 0.00316546 0)
(0.989165 0.0030362 0)
(0.989207 0.00518693 0)
(0.989272 0.00913557 0)
(0.991562 0.0100527 0)
(1.0021 -0.00706597 0)
(0.992611 0.00124423 0)
(0.994923 0.000882654 0)
(0.997871 -0.00127869 0)
(0.99453 0.0015869 0)
(0.9963 0.00227654 0)
(0.999372 0.00286304 0)
(0.999877 0.000397102 0)
(1.00228 0.00107916 0)
(1.00024 -0.00656375 0)
(0.996829 -0.00290689 0)
(0.995842 -0.00882969 0)
(0.990161 -0.00461447 0)
(0.989421 -0.00178056 0)
(0.990007 -0.00222199 0)
(0.988095 0.00304015 0)
(0.989322 0.00330026 0)
(0.989625 0.00506669 0)
(0.98964 0.00900086 0)
(0.991766 0.00998283 0)
(1.00204 -0.00684959 0)
(0.992789 0.00108632 0)
(0.994924 0.00097513 0)
(0.997926 -0.00133179 0)
(0.994635 0.00164757 0)
(0.996347 0.00212505 0)
(0.999332 0.00278368 0)
(0.999842 0.000387811 0)
(1.00208 0.000930275 0)
(1.00014 -0.00618428 0)
(0.99677 -0.00303061 0)
(0.995825 -0.00821038 0)
(0.990511 -0.00469855 0)
(0.989575 -0.00152804 0)
(0.990299 -0.00212681 0)
(0.988443 0.00288553 0)
(0.989489 0.00355533 0)
(0.990038 0.00497096 0)
(0.990034 0.00881567 0)
(0.991962 0.00992728 0)
(1.00199 -0.00662395 0)
(0.992974 0.000916152 0)
(0.994928 0.00107779 0)
(0.997984 -0.00139155 0)
(0.994742 0.00170897 0)
(0.996393 0.00197922 0)
(0.999296 0.00269007 0)
(0.999805 0.000395314 0)
(1.00189 0.000764408 0)
(1.00004 -0.00579498 0)
(0.996719 -0.00314341 0)
(0.995808 -0.00761778 0)
(0.990862 -0.00473503 0)
(0.989745 -0.00132215 0)
(0.990583 -0.0019796 0)
(0.988818 0.00271188 0)
(0.989669 0.00379273 0)
(0.990439 0.00490274 0)
(0.99045 0.00857995 0)
(0.992152 0.00987096 0)
(1.00193 -0.00638917 0)
(0.993168 0.000733638 0)
(0.994934 0.00119074 0)
(0.998046 -0.00145462 0)
(0.994853 0.00176769 0)
(0.996439 0.00184326 0)
(0.999266 0.00258257 0)
(0.999765 0.00042139 0)
(1.0017 0.000590803 0)
(0.99994 -0.00540321 0)
(0.996675 -0.00323888 0)
(0.995794 -0.00706551 0)
(0.991212 -0.00471543 0)
(0.989933 -0.00115396 0)
(0.990859 -0.00178408 0)
(0.989216 0.00253569 0)
(0.989865 0.0040048 0)
(0.990824 0.0048637 0)
(0.990886 0.00829694 0)
(0.992343 0.00980113 0)
(1.00187 -0.00614542 0)
(0.993369 0.000539721 0)
(0.994943 0.00131195 0)
(0.998112 -0.00152065 0)
(0.994968 0.00182082 0)
(0.996483 0.00171718 0)
(0.999242 0.00245959 0)
(0.999723 0.000464842 0)
(1.00151 0.000413141 0)
(0.999838 -0.00501732 0)
(0.996639 -0.00330604 0)
(0.995783 -0.00655627 0)
(0.991561 -0.00464665 0)
(0.990141 -0.00102014 0)
(0.991128 -0.00155669 0)
(0.989635 0.00236553 0)
(0.99008 0.00418254 0)
(0.99119 0.00485505 0)
(0.99134 0.00797561 0)
(0.992544 0.00970026 0)
(1.00181 -0.00589315 0)
(0.993579 0.000335088 0)
(0.994955 0.00144038 0)
(0.998181 -0.00158748 0)
(0.995088 0.00186459 0)
(0.996526 0.00161046 0)
(0.999224 0.00231198 0)
(0.999679 0.000526173 0)
(1.00133 0.000227073 0)
(0.999738 -0.00464362 0)
(0.996608 -0.00333413 0)
(0.995777 -0.0060909 0)
(0.991907 -0.00453593 0)
(0.990368 -0.00090817 0)
(0.991392 -0.00130997 0)
(0.990072 0.00220966 0)
(0.990318 0.00432317 0)
(0.991533 0.0048776 0)
(0.991807 0.00763002 0)
(0.992766 0.00955207 0)
(1.00175 -0.00563279 0)
(0.993797 0.000121319 0)
(0.994971 0.00157319 0)
(0.998252 -0.00165019 0)
(0.995214 0.00189636 0)
(0.996567 0.00153018 0)
(0.999213 0.0021374 0)
(0.999633 0.000602622 0)
(1.00116 4.28721e-05 0)
(0.99964 -0.00429622 0)
(0.996583 -0.00331635 0)
(0.995777 -0.00566452 0)
(0.992252 -0.0043904 0)
(0.990615 -0.000808835 0)
(0.991651 -0.00105907 0)
(0.990523 0.00206865 0)
(0.990581 0.00442241 0)
(0.991853 0.00492853 0)
(0.99228 0.00727404 0)
(0.993018 0.00934167 0)
(1.00169 -0.00536511 0)
(0.994025 -9.65391e-05 0)
(0.994992 0.00170671 0)
(0.998324 -0.00170635 0)
(0.995348 0.00191079 0)
(0.996606 0.001476 0)
(0.99921 0.00193766 0)
(0.999587 0.000687378 0)
(1.00099 -0.000128434 0)
(0.999547 -0.00398237 0)
(0.996564 -0.00325492 0)
(0.995783 -0.00527125 0)
(0.992594 -0.00421768 0)
(0.990882 -0.000712434 0)
(0.991907 -0.000796154 0)
(0.990986 0.00194231 0)
(0.990874 0.00447191 0)
(0.99215 0.00500145 0)
(0.992749 0.00692901 0)
(0.99331 0.00906167 0)
(1.00162 -0.00509127 0)
(0.994262 -0.00032213 0)
(0.995018 0.00184005 0)
(0.998397 -0.00174949 0)
(0.99549 0.00190332 0)
(0.996641 0.00145204 0)
(0.999214 0.00171723 0)
(0.999542 0.000776021 0)
(1.00083 -0.000269743 0)
(0.999462 -0.00370663 0)
(0.99655 -0.00315187 0)
(0.995794 -0.00490218 0)
(0.992935 -0.00402515 0)
(0.991168 -0.000610642 0)
(0.992159 -0.00052883 0)
(0.991454 0.0018306 0)
(0.9912 0.00447066 0)
(0.992427 0.00508704 0)
(0.993204 0.00661787 0)
(0.993645 0.00871352 0)
(1.00156 -0.00481157 0)
(0.994508 -0.000555203 0)
(0.99505 0.00196763 0)
(0.99847 -0.00177632 0)
(0.995641 0.00186913 0)
(0.996673 0.00146346 0)
(0.999226 0.00148144 0)
(0.999501 0.000861405 0)
(1.00067 -0.000377285 0)
(0.999385 -0.0034716 0)
(0.996544 -0.00301436 0)
(0.995811 -0.00454311 0)
(0.993276 -0.00382682 0)
(0.991474 -0.000505581 0)
(0.992406 -0.000267376 0)
(0.991923 0.00173545 0)
(0.99156 0.00442049 0)
(0.992691 0.00517011 0)
(0.993633 0.00635496 0)
(0.994019 0.00830922 0)
(1.0015 -0.00452793 0)
(0.994764 -0.000786297 0)
(0.995091 0.00208355 0)
(0.998542 -0.00178112 0)
(0.995802 0.00180623 0)
(0.996702 0.00150381 0)
(0.999244 0.00123939 0)
(0.999466 0.000929104 0)
(1.00051 -0.000443041 0)
(0.999317 -0.00327364 0)
(0.996548 -0.00285272 0)
(0.995833 -0.00418658 0)
(0.993616 -0.00362911 0)
(0.9918 -0.000404395 0)
(0.992649 -1.06782e-06 0)
(0.992386 0.00166456 0)
(0.991953 0.00432303 0)
(0.992951 0.0052347 0)
(0.994028 0.00614789 0)
(0.994423 0.00787199 0)
(1.00143 -0.00424099 0)
(0.995028 -0.00101741 0)
(0.995141 0.0021833 0)
(0.998613 -0.00175726 0)
(0.995974 0.00171423 0)
(0.996726 0.00156498 0)
(0.999267 0.000999434 0)
(0.999441 0.000970795 0)
(1.00035 -0.000461313 0)
(0.999259 -0.00310445 0)
(0.996565 -0.00267647 0)
(0.995858 -0.0038245 0)
(0.993954 -0.00342458 0)
(0.992149 -0.000316386 0)
(0.992891 0.000266557 0)
(0.992838 0.00162332 0)
(0.992378 0.00418481 0)
(0.993215 0.00527103 0)
(0.994383 0.00599987 0)
(0.994841 0.00743235 0)
(1.00137 -0.00395329 0)
(0.995301 -0.00124467 0)
(0.995202 0.00226107 0)
(0.998681 -0.00170429 0)
(0.996158 0.0015972 0)
(0.996748 0.0016447 0)
(0.999292 0.000772931 0)
(0.999427 0.000978113 0)
(1.0002 -0.000435426 0)
(0.999209 -0.00295567 0)
(0.996597 -0.00249711 0)
(0.995887 -0.00345192 0)
(0.994289 -0.00320447 0)
(0.992521 -0.000244429 0)
(0.993135 0.00053188 0)
(0.993272 0.00161844 0)
(0.99283 0.0040149 0)
(0.993496 0.00526186 0)
(0.9947 0.00590252 0)
(0.995252 0.00703055 0)
(1.0013 -0.003666 0)
(0.99558 -0.00146137 0)
(0.995275 0.00231299 0)
(0.998746 -0.00161674 0)
(0.996353 0.0014585 0)
(0.996767 0.00173235 0)
(0.999317 0.000574492 0)
(0.999428 0.000945597 0)
(1.00004 -0.000375218 0)
(0.999165 -0.00281497 0)
(0.996647 -0.0023269 0)
(0.995922 -0.00306458 0)
(0.994616 -0.00297285 0)
(0.992915 -0.000190674 0)
(0.993385 0.000777947 0)
(0.993682 0.00164382 0)
(0.993299 0.00382945 0)
(0.993802 0.00519785 0)
(0.994987 0.00583012 0)
(0.995636 0.0066999 0)
(1.00123 -0.00338086 0)
(0.995866 -0.00166629 0)
(0.995361 0.00233355 0)
(0.998807 -0.00149556 0)
(0.996559 0.00129972 0)
(0.996787 0.00182234 0)
(0.999338 0.000410132 0)
(0.999443 0.000871345 0)
(0.999895 -0.000286274 0)
(0.999126 -0.00266832 0)
(0.996719 -0.00217707 0)
(0.995965 -0.00267223 0)
(0.994931 -0.00272335 0)
(0.99333 -0.000153814 0)
(0.993647 0.000999461 0)
(0.99407 0.00169484 0)
(0.993778 0.00364343 0)
(0.994137 0.0050886 0)
(0.995259 0.00574625 0)
(0.995983 0.00644434 0)
(1.00117 -0.00310078 0)
(0.996156 -0.00185421 0)
(0.995462 0.00231711 0)
(0.998864 -0.00134616 0)
(0.996775 0.00113122 0)
(0.996809 0.00190651 0)
(0.999354 0.000286523 0)
(0.999476 0.000762374 0)
(0.999756 -0.000181173 0)
(0.999087 -0.00249982 0)
(0.996811 -0.00204351 0)
(0.996019 -0.00229531 0)
(0.995232 -0.00244671 0)
(0.993762 -0.000129734 0)
(0.993925 0.00119391 0)
(0.994432 0.0017762 0)
(0.994258 0.00346246 0)
(0.994499 0.00494855 0)
(0.995531 0.00563336 0)
(0.996293 0.00623727 0)
(1.0011 -0.00282678 0)
(0.996448 -0.00201983 0)
(0.99558 0.00226697 0)
(0.998916 -0.00117118 0)
(0.996999 0.000958406 0)
(0.996835 0.00197456 0)
(0.99936 0.000210899 0)
(0.999524 0.00063154 0)
(0.999632 -7.54084e-05 0)
(0.999049 -0.00230494 0)
(0.996922 -0.00191728 0)
(0.996089 -0.00193631 0)
(0.995515 -0.00214284 0)
(0.994206 -0.000106662 0)
(0.994224 0.00135074 0)
(0.994772 0.00188344 0)
(0.994732 0.00328736 0)
(0.994885 0.00477522 0)
(0.995808 0.00550037 0)
(0.996579 0.00604725 0)
(1.00103 -0.002562 0)
(0.99674 -0.00215833 0)
(0.995714 0.00218281 0)
(0.998964 -0.000978805 0)
(0.997229 0.000787618 0)
(0.996868 0.00202078 0)
(0.999356 0.000177797 0)
(0.999585 0.000486348 0)
(0.999526 2.31062e-05 0)
(0.99901 -0.00208523 0)
(0.99705 -0.00179259 0)
(0.996177 -0.00160464 0)
(0.995781 -0.00183081 0)
(0.994655 -8.13671e-05 0)
(0.994548 0.00146694 0)
(0.995089 0.00201505 0)
(0.995189 0.00314114 0)
(0.995294 0.00456137 0)
(0.996098 0.0053486 0)
(0.996851 0.00585575 0)
(1.00097 -0.00230753 0)
(0.997029 -0.00226417 0)
(0.995865 0.00206295 0)
(0.999007 -0.00077728 0)
(0.997462 0.00062643 0)
(0.99691 0.00203781 0)
(0.99934 0.000183372 0)
(0.999657 0.000341834 0)
(0.999441 0.000107457 0)
(0.998972 -0.00184996 0)
(0.997192 -0.00166245 0)
(0.996284 -0.00130309 0)
(0.99603 -0.00151226 0)
(0.995103 -4.86415e-05 0)
(0.994901 0.00153706 0)
(0.995394 0.00214979 0)
(0.995618 0.00304459 0)
(0.995718 0.00432536 0)
(0.996408 0.00516798 0)
(0.997117 0.00566027 0)
(1.0009 -0.00206677 0)
(0.997314 -0.00233152 0)
(0.996033 0.00191474 0)
(0.999046 -0.000578317 0)
(0.997695 0.000483817 0)
(0.996964 0.0020261 0)
(0.999313 0.000223701 0)
(0.999735 0.000210584 0)
(0.99938 0.000175635 0)
(0.998936 -0.00160546 0)
(0.997346 -0.00152669 0)
(0.996414 -0.00102554 0)
(0.996263 -0.00119001 0)
(0.995542 -2.90993e-06 0)
(0.995281 0.00156796 0)
(0.995697 0.00226641 0)
(0.996014 0.00299497 0)
(0.996144 0.0040986 0)
(0.996739 0.00494674 0)
(0.997386 0.00545004 0)
(1.00084 -0.00184157 0)
(0.99759 -0.00235551 0)
(0.996214 0.00173869 0)
(0.999083 -0.000391522 0)
(0.997925 0.000361966 0)
(0.997028 0.00199035 0)
(0.999276 0.000289102 0)
(0.999817 0.000101559 0)
(0.999343 0.000231525 0)
(0.998902 -0.00135853 0)
(0.997507 -0.00138648 0)
(0.996566 -0.00077101 0)
(0.996482 -0.000870124 0)
(0.995966 5.39276e-05 0)
(0.995686 0.00156434 0)
(0.996005 0.00235912 0)
(0.99638 0.0029797 0)
(0.996554 0.00390658 0)
(0.997084 0.00470195 0)
(0.997669 0.00521262 0)
(1.00078 -0.00163182 0)
(0.997855 -0.00233851 0)
(0.996408 0.00154057 0)
(0.999117 -0.00022425 0)
(0.998148 0.000265295 0)
(0.997105 0.00193467 0)
(0.99923 0.000365831 0)
(0.999898 2.25654e-05 0)
(0.999328 0.000278233 0)
(0.998873 -0.00111344 0)
(0.997676 -0.00124243 0)
(0.996741 -0.000546084 0)
(0.996687 -0.000545626 0)
(0.996367 0.000136756 0)
(0.996111 0.00152049 0)
(0.996329 0.00241532 0)
(0.996722 0.00298149 0)
(0.996942 0.00374816 0)
(0.997429 0.00446555 0)
(0.997965 0.00494831 0)
(1.00071 -0.00143881 0)
(0.998106 -0.00228576 0)
(0.99661 0.00133419 0)
(0.999152 -8.5795e-05 0)
(0.998363 0.000192604 0)
(0.997191 0.00186869 0)
(0.999179 0.000446094 0)
(0.999978 -3.52763e-05 0)
(0.999336 0.000324339 0)
(0.998847 -0.000864529 0)
(0.997846 -0.00109858 0)
(0.996941 -0.000355257 0)
(0.996885 -0.000232655 0)
(0.996734 0.000256517 0)
(0.996546 0.0014534 0)
(0.996676 0.00242113 0)
(0.997048 0.00298958 0)
(0.997305 0.00362029 0)
(0.997763 0.0042549 0)
(0.998268 0.00467422 0)
(1.00065 -0.00126328 0)
(0.99834 -0.00220023 0)
(0.996818 0.00112794 0)
(0.999186 2.03789e-05 0)
(0.998569 0.000135691 0)
(0.997286 0.00179713 0)
(0.99912 0.000528173 0)
(1.00006 -7.62243e-05 0)
(0.999366 0.000375703 0)
(0.998824 -0.000608642 0)
(0.998013 -0.000959691 0)
(0.997166 -0.000195246 0)
(0.997083 7.67751e-05 0)
(0.997065 0.000419114 0)
(0.996977 0.00139713 0)
(0.997049 0.00236992 0)
(0.997371 0.00298485 0)
(0.997644 0.00352343 0)
(0.998078 0.00407086 0)
(0.998559 0.00442472 0)
(1.00059 -0.00110436 0)
(0.998557 -0.0020904 0)
(0.997027 0.000931878 0)
(0.999222 9.69702e-05 0)
(0.998766 9.23274e-05 0)
(0.997388 0.00172351 0)
(0.999056 0.00061151 0)
(1.00013 -0.00011134 0)
(0.99942 0.00042497 0)
(0.9988 -0.000332549 0)
(0.998171 -0.000810898 0)
(0.997418 -8.20913e-05 0)
(0.99729 0.000359981 0)
(0.997355 0.00062227 0)
(0.997383 0.00137308 0)
(0.99744 0.0022779 0)
(0.997703 0.00294427 0)
(0.997966 0.00343898 0)
(0.998374 0.00390501 0)
(0.998824 0.0042133 0)
(1.00054 -0.000960506 0)
(0.998755 -0.00196564 0)
(0.997233 0.000756224 0)
(0.999258 0.000142451 0)
(0.998953 5.71178e-05 0)
(0.997496 0.00165649 0)
(0.998984 0.000699594 0)
(1.0002 -0.000143143 0)
(0.999501 0.000461336 0)
(0.99878 -5.02151e-05 0)
(0.998306 -0.000628651 0)
(0.997689 -1.54954e-05 0)
(0.997517 0.000579152 0)
(0.997615 0.000847808 0)
(0.997752 0.001391 0)
(0.997835 0.0021714 0)
(0.99805 0.00285977 0)
(0.998277 0.00335412 0)
(0.998655 0.00375996 0)
(0.999061 0.00403452 0)
(1.00048 -0.000830899 0)
(0.998935 -0.00183167 0)
(0.997432 0.000607169 0)
(0.999294 0.000162042 0)
(0.999133 2.05822e-05 0)
(0.99761 0.00159134 0)
(0.998902 0.000802233 0)
(1.00025 -0.000166868 0)
(0.999609 0.00047834 0)
(0.998769 0.000235365 0)
(0.998413 -0.000414898 0)
(0.997965 2.30432e-05 0)
(0.997774 0.000728665 0)
(0.997856 0.00106716 0)
(0.998075 0.00145927 0)
(0.998217 0.00207908 0)
(0.998411 0.00273184 0)
(0.998592 0.00325076 0)
(0.998927 0.00362179 0)
(0.999275 0.00387242 0)
(1.00042 -0.00071448 0)
(0.999096 -0.00169489 0)
(0.997623 0.000486549 0)
(0.999327 0.000166107 0)
(0.999307 -2.47719e-05 0)
(0.997734 0.00152554 0)
(0.99881 0.000921115 0)
(1.0003 -0.000176789 0)
(0.999748 0.000448861 0)
(0.998771 0.000528349 0)
(0.998481 -0.000148763 0)
(0.998231 5.86303e-05 0)
(0.998061 0.000800413 0)
(0.998096 0.00125201 0)
(0.998355 0.00156804 0)
(0.998564 0.00202594 0)
(0.998775 0.00258389 0)
(0.998916 0.0031135 0)
(0.999195 0.00347956 0)
(0.999481 0.00370807 0)
(1.00037 -0.000608097 0)
(0.999242 -0.00156312 0)
(0.997804 0.000392809 0)
(0.999354 0.000161952 0)
(0.999474 -7.63695e-05 0)
(0.997869 0.00145031 0)
(0.998709 0.00105282 0)
(1.00031 -0.000154152 0)
(0.999917 0.000366679 0)
(0.998807 0.000780449 0)
(0.998508 0.000182437 0)
(0.998462 0.000128907 0)
(0.998372 0.00080865 0)
(0.998353 0.00138826 0)
(0.998602 0.00169004 0)
(0.998864 0.00201237 0)
(0.999121 0.00245056 0)
(0.999248 0.00294015 0)
(0.999464 0.00332951 0)
(0.999686 0.0035351 0)
(1.00032 -0.000510861 0)
(0.999373 -0.00143887 0)
(0.997975 0.000323472 0)
(0.999374 0.000159832 0)
(0.999632 -0.000136023 0)
(0.99802 0.00135916 0)
(0.998604 0.00119626 0)
(1.00029 -8.91286e-05 0)
(1.00011 0.000258524 0)
(0.99889 0.000958341 0)
(0.998508 0.000544463 0)
(0.998637 0.000262729 0)
(0.998691 0.000784202 0)
(0.998635 0.00145808 0)
(0.99883 0.00181054 0)
(0.999118 0.00203209 0)
(0.99943 0.002347 0)
(0.999579 0.00274657 0)
(0.99974 0.00315517 0)
(0.999889 0.00336093 0)
(1.00027 -0.000422329 0)
(0.999491 -0.00132364 0)
(0.998136 0.000272306 0)
(0.999385 0.000168129 0)
(0.999781 -0.000198574 0)
(0.998189 0.00124812 0)
(0.998503 0.00133464 0)
(1.00023 2.69166e-05 0)
(1.0003 0.00013671 0)
(0.99903 0.00104558 0)
(0.998498 0.000903653 0)
(0.998747 0.000473348 0)
(0.998991 0.000772401 0)
(0.998948 0.00144767 0)
(0.999057 0.00190486 0)
(0.999328 0.00208683 0)
(0.999688 0.00227893 0)
(0.999891 0.00256779 0)
(1.00003 0.0029488 0)
(1.00009 0.00318941 0)
(1.00023 -0.000340333 0)
(0.999595 -0.00121922 0)
(0.99829 0.000234263 0)
(0.999386 0.000192113 0)
(0.999915 -0.000261758 0)
(0.998379 0.00111681 0)
(0.998416 0.00145937 0)
(1.00013 0.000189875 0)
(1.00049 3.88367e-05 0)
(0.999232 0.00102958 0)
(0.998505 0.00122525 0)
(0.998792 0.00074863 0)
(0.99924 0.000804419 0)
(0.999278 0.00139172 0)
(0.99931 0.00193454 0)
(0.999507 0.00215181 0)
(0.999888 0.00224987 0)
(1.00016 0.0024181 0)
(1.00032 0.00271895 0)
(1.0003 0.00300085 0)
(1.00018 -0.00026559 0)
(0.999689 -0.00112312 0)
(0.99844 0.000202833 0)
(0.999376 0.00023462 0)
(1.00003 -0.000313624 0)
(0.99859 0.000956706 0)
(0.998352 0.00155406 0)
(0.999984 0.000397916 0)
(1.00064 -1.83912e-05 0)
(0.999489 0.000921285 0)
(0.998557 0.00146468 0)
(0.998785 0.00105976 0)
(0.999422 0.000886331 0)
(0.999599 0.00132999 0)
(0.999588 0.00190765 0)
(0.999683 0.00219015 0)
(1.00003 0.00225994 0)
(1.00036 0.00231053 0)
(1.00059 0.00249229 0)
(1.00053 0.00277556 0)
(1.00014 -0.000197952 0)
(0.999772 -0.00103413 0)
(0.998587 0.000172841 0)
(0.999359 0.000291404 0)
(1.00013 -0.000338451 0)
(0.998819 0.000777818 0)
(0.998327 0.00160118 0)
(0.999809 0.000632052 0)
(1.00074 -1.25742e-05 0)
(0.999787 0.000763266 0)
(0.998677 0.00159261 0)
(0.998748 0.00137783 0)
(0.999525 0.0010334 0)
(0.999891 0.00127243 0)
(0.999888 0.00183458 0)
(0.999872 0.00218708 0)
(1.00015 0.00227362 0)
(1.00049 0.00225387 0)
(1.00081 0.00229856 0)
(1.00077 0.0025205 0)
(1.00011 -0.000137932 0)
(0.999846 -0.000945701 0)
(0.998735 0.000137828 0)
(0.999336 0.00036 0)
(1.0002 -0.000334947 0)
(0.99906 0.000596688 0)
(0.998345 0.00160363 0)
(0.999621 0.00086921 0)
(1.00078 7.28615e-05 0)
(1.00009 0.000600924 0)
(0.998876 0.00159496 0)
(0.998718 0.0016541 0)
(0.999544 0.00124594 0)
(1.00012 0.00125339 0)
(1.0002 0.00171725 0)
(1.00009 0.00214272 0)
(1.00025 0.00225991 0)
(1.00056 0.00222488 0)
(1.00096 0.00216093 0)
(1.001 0.00226605 0)
(1.00008 -8.74037e-05 0)
(0.99991 -0.000853411 0)
(0.998885 9.6082e-05 0)
(0.999314 0.000429658 0)
(1.00024 -0.000292092 0)
(0.999308 0.000415716 0)
(0.998415 0.00155123 0)
(0.999435 0.00109525 0)
(1.00074 0.000221771 0)
(1.00038 0.00046723 0)
(0.99915 0.00148853 0)
(0.998734 0.0018462 0)
(0.999503 0.00147688 0)
(1.00027 0.0012955 0)
(1.00049 0.00158858 0)
(1.00033 0.00204302 0)
(1.00036 0.00222628 0)
(1.0006 0.00219153 0)
(1.00101 0.0020815 0)
(1.00118 0.00205138 0)
(1.00005 -4.64254e-05 0)
(0.999964 -0.000756583 0)
(0.999037 4.86407e-05 0)
(0.999299 0.000493464 0)
(1.00025 -0.000212903 0)
(0.999548 0.000253364 0)
(0.998538 0.00144338 0)
(0.999273 0.00128257 0)
(1.00065 0.000420245 0)
(1.00062 0.000394997 0)
(0.99948 0.00131304 0)
(0.998816 0.00193662 0)
(0.99943 0.00169481 0)
(1.00032 0.00138561 0)
(1.00074 0.00149074 0)
(1.00059 0.00188162 0)
(1.00049 0.00215691 0)
(1.00062 0.00214542 0)
(1.00101 0.00202844 0)
(1.00127 0.00190887 0)
(1.00003 -1.52472e-05 0)
(1.00001 -0.000652846 0)
(0.999191 -4.90583e-07 0)
(0.999297 0.000542888 0)
(1.00023 -0.000103219 0)
(0.99977 0.000122792 0)
(0.998713 0.0012923 0)
(0.999152 0.00141947 0)
(1.00051 0.00063632 0)
(1.00078 0.000398535 0)
(0.999837 0.00111847 0)
(0.998985 0.00190535 0)
(0.99936 0.0018776 0)
(1.00029 0.00151052 0)
(1.0009 0.00143997 0)
(1.00086 0.00170619 0)
(1.00066 0.00202665 0)
(1.00064 0.00209402 0)
(1.00097 0.00197824 0)
(1.00129 0.00183189 0)
(1.00001 5.43541e-06 0)
(1.00004 -0.000544099 0)
(0.999341 -4.30504e-05 0)
(0.999313 0.000569192 0)
(1.00019 2.41896e-05 0)
(0.999961 3.5079e-05 0)
(0.99893 0.00111582 0)
(0.999084 0.00149711 0)
(1.00035 0.00085264 0)
(1.00087 0.000468022 0)
(1.00018 0.000952141 0)
(0.999233 0.00177122 0)
(0.999335 0.00197875 0)
(1.0002 0.00165042 0)
(1.00097 0.00143412 0)
(1.00108 0.00156119 0)
(1.00087 0.0018494 0)
(1.0007 0.00201457 0)
(1.00092 0.00193889 0)
(1.00124 0.00178878 0)
(0.999998 1.76472e-05 0)
(1.00006 -0.000433774 0)
(0.999485 -7.76102e-05 0)
(0.999348 0.000572821 0)
(1.00013 0.000159141 0)
(1.00012 -2.32307e-07 0)
(0.999176 0.000929688 0)
(0.999079 0.00150683 0)
(1.00018 0.00104729 0)