/*--------------------------------*- C++ -*----------------------------------*\
| =========                 |                                                 |
| \\      /  F ield         | OpenFOAM: The Open Source CFD Toolbox           |
|  \\    /   O peration     | Version:  3.0.1                                 |
|   \\  /    A nd           | Web:      www.OpenFOAM.org                      |
|    \\/     M anipulation  |                                                 |
\*---------------------------------------------------------------------------*/
FoamFile
{
    version     2.0;
    format      ascii;
    class       volScalarField;
    location    "0.7";
    object      p;
}
// * * * * * * * * * * * * * * * * * * * * * * * * * * * * * * * * * * * * * //

dimensions      [0 2 -2 0 0 0 0];

internalField   nonuniform List<scalar> 
9600
(
-3.17272e-11
0.00436177
0.00397377
0.00292039
0.00174915
0.00295782
0.00266175
0.0038613
0.00391078
0.00486254
0.00443567
0.00480549
0.00437977
0.00503897
0.00504207
0.00567751
0.00601796
0.00787408
0.00923574
0.0141872
1.4592e-06
0.00435825
0.00397581
0.00291838
0.00175798
0.00296324
0.00265833
0.00386075
0.00391109
0.00485935
0.00443877
0.00480044
0.00438538
0.0050322
0.00505286
0.00567248
0.0060339
0.00782457
0.00932104
0.0136958
3.40228e-06
0.00435263
0.00397877
0.0029175
0.00176939
0.00296734
0.00265496
0.00386048
0.003911
0.00486091
0.00444424
0.00479281
0.00439518
0.00502068
0.00506684
0.00566353
0.00605324
0.00777076
0.00935014
0.0131842
6.60685e-06
0.00434716
0.00398177
0.00291809
0.00178219
0.00296956
0.00265314
0.00386159
0.00391057
0.00486809
0.00444898
0.00478342
0.00440768
0.00500584
0.00508185
0.00564974
0.00607621
0.00771004
0.0093442
0.0127042
1.22651e-05
0.00434195
0.00398412
0.0029199
0.0017976
0.00297056
0.00265309
0.00386276
0.00390916
0.00487609
0.00445162
0.00477206
0.00442185
0.00498866
0.0050979
0.00563232
0.00610094
0.00764312
0.00931342
0.0122608
2.09392e-05
0.00433625
0.00398531
0.00292268
0.00181608
0.00297061
0.00265474
0.00386279
0.00390647
0.0048823
0.00445231
0.00475853
0.00443728
0.00497006
0.00511523
0.00561216
0.00612627
0.00757254
0.00926055
0.0118496
3.25525e-05
0.00432957
0.00398535
0.00292594
0.00183735
0.00297026
0.00265842
0.0038618
0.00390268
0.00488604
0.00445158
0.00474282
0.00445405
0.00495032
0.00513367
0.00559011
0.00615018
0.00750124
0.00918549
0.0114654
4.66742e-05
0.00432171
0.00398452
0.00292918
0.0018611
0.0029703
0.00266481
0.00386051
0.00389796
0.00488735
0.00444992
0.00472495
0.00447219
0.00492933
0.00515297
0.00556678
0.00617051
0.00743186
0.00908796
0.0111034
6.27801e-05
0.00431268
0.00398317
0.00293216
0.00188713
0.00297114
0.00267429
0.00385941
0.00389247
0.00488644
0.00444785
0.00470493
0.00449152
0.00490715
0.00517266
0.00554272
0.00618515
0.00736561
0.00896818
0.0107594
8.0419e-05
0.00430268
0.00398168
0.00293482
0.00191524
0.00297278
0.00268686
0.00385867
0.00388652
0.00488341
0.00444584
0.00468269
0.00451187
0.00488396
0.00519188
0.00551886
0.00619221
0.00730254
0.00882746
0.0104292
9.92781e-05
0.0042919
0.00398033
0.00293716
0.00194518
0.0029751
0.00270216
0.00385821
0.00388058
0.0048782
0.00444442
0.00465824
0.00453301
0.00486007
0.00520961
0.00549632
0.00619008
0.00724192
0.00866817
0.0101085
0.00011917
0.00428054
0.00397927
0.00293919
0.00197672
0.00297793
0.00271961
0.00385773
0.00387519
0.00487074
0.00444408
0.00463162
0.00455458
0.00483598
0.00522471
0.00547585
0.0061775
0.0071824
0.00849362
0.00979261
0.000139995
0.00426865
0.00397862
0.00294086
0.00200971
0.00298115
0.0027386
0.00385693
0.00387086
0.00486091
0.00444518
0.00460297
0.00457605
0.00481243
0.00523603
0.0054578
0.00615382
0.00712195
0.00830765
0.00947799
0.000161719
0.00425627
0.00397847
0.00294213
0.00204405
0.00298468
0.00275867
0.00385554
0.00386799
0.00484864
0.00444787
0.00457261
0.0045967
0.00479022
0.00524264
0.0054422
0.00611885
0.00705772
0.00811457
0.00916257
0.000184351
0.00424334
0.0039789
0.00294293
0.0020797
0.00298845
0.00277954
0.00385338
0.00386686
0.00483391
0.00445206
0.00454096
0.00461578
0.00477002
0.00524374
0.00542873
0.006073
0.00698655
0.00791816
0.00884588
0.00020794
0.0042298
0.00398001
0.00294321
0.00211664
0.00299244
0.0028011
0.00385032
0.0038676
0.00481678
0.00445748
0.00450854
0.00463255
0.00475227
0.00523871
0.00541656
0.00601775
0.00690557
0.00772033
0.00852839
0.00023256
0.00421552
0.00398188
0.00294293
0.00215489
0.00299659
0.00282331
0.00384627
0.00387023
0.00479744
0.00446365
0.00447596
0.00464626
0.00473722
0.00522742
0.00540423
0.00595477
0.00681128
0.00752193
0.00821118
0.00025831
0.00420037
0.0039846
0.00294203
0.00219445
0.00300087
0.00284615
0.0038412
0.00387464
0.00477616
0.00446994
0.00444381
0.00465635
0.00472483
0.00521022
0.00538982
0.00588505
0.00670523
0.00732386
0.00789579
0.000285304
0.00418421
0.00398829
0.00294046
0.00223531
0.00300529
0.00286956
0.00383517
0.00388063
0.00475339
0.00447575
0.00441242
0.0046625
0.00471471
0.00518761
0.00537156
0.00580906
0.00658858
0.00712682
0.00758399
0.000313669
0.00416687
0.00399303
0.0029382
0.00227746
0.00300984
0.00289349
0.00382824
0.00388781
0.00472971
0.00448069
0.00438201
0.00466465
0.004706
0.0051601
0.00534847
0.00572689
0.00646226
0.00693164
0.00727797
0.000343548
0.00414814
0.00399893
0.00293521
0.00232084
0.00301461
0.0029178
0.00382068
0.00389576
0.00470563
0.00448428
0.00435272
0.00466291
0.00469761
0.00512774
0.00532025
0.00563847
0.00632625
0.00673896
0.00698058
0.000375098
0.00412783
0.00400606
0.00293146
0.00236538
0.00301973
0.00294228
0.00381282
0.00390402
0.00468164
0.00448628
0.00432429
0.00465759
0.00468876
0.00509006
0.0052867
0.00554412
0.00617982
0.00654894
0.00669512
0.000408481
0.00410572
0.00401453
0.00292696
0.00241094
0.00302541
0.00296661
0.00380504
0.00391202
0.00465817
0.0044868
0.00429613
0.00464902
0.00467919
0.00504646
0.00524729
0.00544473
0.00602281
0.0063606
0.00642465
0.000443876
0.00408158
0.00402438
0.00292176
0.00245735
0.0030319
0.00299039
0.00379786
0.00391933
0.00463529
0.00448622
0.00426766
0.00463737
0.00466885
0.00499625
0.00520145
0.00534192
0.00585522
0.00617181
0.00617144
0.000481474
0.00405518
0.00403565
0.00291597
0.00250436
0.00303957
0.00301316
0.00379173
0.00392578
0.00461286
0.00448505
0.00423827
0.00462234
0.00465785
0.00493869
0.00514818
0.00523795
0.00567818
0.00597991
0.0059361
0.000521469
0.0040263
0.00404833
0.00290972
0.00255165
0.00304888
0.00303444
0.00378701
0.0039313
0.0045906
0.00448395
0.00420739
0.00460307
0.0046465
0.00487346
0.00508594
0.0051353
0.00549488
0.00578172
0.00571695
0.000564059
0.00399475
0.00406236
0.00290324
0.00259884
0.00306038
0.00305373
0.00378393
0.00393591
0.00456792
0.00448365
0.00417499
0.00457823
0.00463514
0.00480117
0.00501302
0.00503538
0.00530935
0.00557445
0.00550976
0.000609446
0.00396033
0.0040776
0.00289681
0.00264549
0.00307468
0.00307058
0.00378258
0.0039401
0.00454402
0.00448449
0.00414159
0.00454598
0.0046237
0.00472356
0.00492777
0.00493487
0.00512611
0.00535752
0.0053082
0.000657829
0.00392291
0.00409387
0.00289076
0.00269106
0.00309238
0.0030847
0.00378284
0.00394453
0.00451818
0.00448639
0.0041079
0.00450452
0.00461131
0.00464308
0.00482874
0.00483812
0.0049511
0.00513405
0.00510495
0.000709395
0.00388241
0.0041109
0.00288546
0.00273497
0.00311409
0.00309594
0.00378438
0.00394988
0.00448973
0.00448907
0.00407477
0.00445239
0.00459642
0.00456269
0.00471558
0.00473908
0.00478932
0.00491059
0.00489419
0.000764313
0.00383884
0.00412834
0.00288137
0.00277664
0.00314025
0.00310427
0.00378667
0.00395704
0.00445793
0.00449185
0.00404335
0.0043883
0.00457684
0.00448585
0.00459014
0.00463335
0.00464124
0.00469479
0.00467469
0.000822725
0.00379231
0.00414579
0.00287891
0.00281554
0.00317127
0.00310987
0.00378892
0.0039669
0.00442231
0.00449372
0.00401496
0.00431178
0.00454967
0.00441562
0.00445631
0.00451541
0.00450281
0.00449308
0.00445095
0.000884758
0.00374295
0.00416279
0.00287849
0.00285109
0.00320751
0.00311316
0.00379012
0.00398038
0.00438252
0.00449303
0.00399134
0.00422358
0.00451127
0.00435371
0.00431924
0.00438255
0.00436902
0.00430859
0.0042315
0.000950507
0.00369074
0.00417887
0.00288056
0.0028827
0.00324902
0.00311486
0.00378915
0.00399855
0.00433858
0.00448687
0.00397431
0.00412613
0.00445788
0.00429996
0.00418489
0.0042351
0.00423304
0.00413988
0.00402454
0.00102004
0.00363671
0.00419352
0.00288563
0.00290978
0.00329563
0.00311583
0.00378459
0.00402202
0.00429149
0.00447127
0.00396457
0.00402417
0.00438639
0.00425176
0.0040594
0.00407666
0.00408895
0.00398278
0.00383423
0.00109346
0.00358078
0.00420625
0.00289413
0.00293175
0.00334705
0.0031157
0.00377471
0.00405112
0.00424309
0.00444198
0.00396138
0.00392362
0.00429563
0.00420464
0.00394418
0.00391169
0.00393397
0.00383183
0.00366088
0.00117081
0.00352327
0.00421656
0.00290645
0.00294796
0.00340277
0.0031193
0.00375757
0.00408595
0.00419375
0.00439435
0.0039622
0.0038309
0.00418708
0.00415181
0.00384614
0.00374637
0.00376843
0.00368204
0.00350264
0.00125212
0.00346454
0.0042241
0.00292315
0.00295767
0.00346187
0.00312807
0.00373125
0.00412543
0.00414803
0.00432683
0.00396125
0.00375167
0.0040649
0.00408553
0.00376137
0.00358878
0.00359512
0.00352947
0.00335626
0.00133744
0.0034049
0.00422844
0.00294482
0.00296024
0.00352335
0.00314396
0.00369426
0.00416639
0.00411527
0.00423965
0.00395096
0.00368856
0.0039355
0.0040158
0.00368704
0.00344522
0.0034187
0.0033714
0.00321679
0.00142673
0.00334476
0.00422892
0.00297233
0.00295524
0.00359557
0.00316973
0.00364609
0.00420366
0.00409971
0.00413808
0.00392336
0.00364049
0.00380735
0.00391219
0.00361391
0.00331796
0.00324581
0.00320745
0.00307842
0.00151989
0.00328468
0.00422481
0.00300671
0.00294253
0.00365715
0.00320805
0.00358739
0.00423046
0.00410526
0.00403166
0.00387196
0.00360262
0.00368942
0.00379269
0.00353188
0.00320456
0.00308328
0.00304092
0.00293713
0.00161669
0.00322542
0.00421522
0.003049
0.00292277
0.00371146
0.0032609
0.00352069
0.00423988
0.00413106
0.003931
0.00379542
0.00356636
0.00358611
0.00366351
0.00343611
0.00309954
0.00293494
0.00287824
0.0027932
0.00171677
0.00316798
0.00419903
0.00309992
0.00289761
0.00375449
0.00332888
0.00345098
0.00422696
0.00418307
0.00384564
0.00369508
0.0035218
0.00349731
0.00353445
0.00332814
0.00299583
0.00279953
0.00272541
0.00265226
0.00181968
0.00311355
0.00417483
0.00315964
0.00287029
0.00378138
0.00341048
0.00338511
0.00418852
0.00423081
0.00378326
0.00357758
0.00346072
0.00341998
0.00341245
0.00321169
0.0028891
0.00267313
0.00258346
0.00252091
0.00192478
0.00306355
0.00414128
0.00322774
0.00284528
0.00378752
0.00351927
0.00333207
0.00412396
0.0042746
0.0037493
0.00345473
0.00337771
0.00335313
0.00330215
0.0030912
0.00277765
0.00255252
0.00245019
0.00239975
0.00203123
0.00301961
0.00409755
0.00330275
0.00282796
0.00376991
0.00361481
0.00330013
0.00403669
0.00430383
0.00374405
0.0033392
0.00327027
0.00327909
0.00320521
0.00297231
0.00266002
0.00243509
0.00232528
0.00228452
0.00213805
0.00298319
0.00404369
0.00338166
0.00282323
0.00372706
0.00370364
0.00329335
0.00393509
0.00431086
0.00376386
0.00324099
0.00314589
0.00319333
0.00311911
0.00286175
0.00253752
0.00231579
0.00220943
0.00217443
0.00224428
0.00295531
0.0039805
0.00346011
0.0028343
0.00366209
0.0037755
0.00331179
0.00383086
0.00429274
0.00380064
0.00316528
0.00301218
0.00309198
0.00303822
0.00276402
0.00241634
0.00218964
0.00209874
0.00207474
0.00234878
0.00293688
0.00390973
0.00353291
0.00286329
0.00358932
0.00382285
0.0033514
0.00373468
0.00425045
0.00383205
0.00311332
0.00287843
0.00297487
0.0029574
0.00268008
0.00230439
0.00205679
0.00198319
0.00198668
0.00245027
0.00292838
0.0038342
0.00359473
0.00291114
0.0035152
0.00384061
0.00339845
0.00365459
0.00418991
0.0038583
0.00308436
0.00275163
0.00284368
0.0028722
0.00260889
0.00220787
0.0019258
0.0018543
0.00189982
0.00254769
0.00293009
0.00374296
0.00364021
0.00297578
0.00344708
0.00382703
0.00344145
0.00359263
0.00412065
0.00387659
0.00307372
0.00263654
0.00270128
0.00277788
0.00254746
0.00212972
0.00180835
0.00171665
0.00179889
0.0026401
0.00294239
0.00366819
0.00366853
0.00305187
0.00339189
0.00378771
0.00347063
0.00354476
0.0040499
0.00388739
0.00307704
0.00253755
0.00255236
0.00267085
0.00249084
0.00206941
0.00170963
0.00158493
0.00167924
0.00272665
0.00296469
0.0035986
0.00367868
0.00313158
0.00335377
0.00373355
0.00348044
0.00350118
0.00397975
0.00389348
0.00309386
0.0024567
0.00240215
0.00254969
0.00243419
0.00202663
0.00162972
0.00146891
0.00155309
0.00280684
0.00299555
0.00353763
0.00367156
0.00320695
0.00333403
0.00367517
0.00346956
0.00345296
0.00390916
0.00389695
0.00312455
0.00239662
0.00225547
0.00241415
0.00237137
0.00200054
0.00157079
0.00136968
0.00143618
0.00288066
0.00303284
0.00348776
0.0036503
0.00327174
0.00333066
0.00362052
0.00344325
0.00339349
0.00383041
0.00389741
0.00317023
0.00236307
0.00211896
0.00226495
0.00229426
0.00198545
0.00153902
0.00128763
0.00133427
0.00294835
0.00307391
0.00345039
0.00361893
0.00332084
0.00333821
0.00357549
0.00341098
0.00332255
0.00373454
0.00388824
0.00322999
0.00236065
0.00200096
0.00210785
0.00219639
0.00197036
0.00153569
0.00122948
0.00124559
0.00301057
0.00311613
0.0034259
0.00358352
0.00335173
0.0033494
0.00354198
0.00338037
0.00324443
0.00361767
0.00385825
0.0033004
0.00239242
0.00191139
0.00195268
0.00207769
0.00194104
0.00155319
0.00120454
0.00117135
0.003068
0.00315762
0.00341278
0.00354863
0.00336445
0.00335752
0.00351909
0.00335739
0.00316931
0.00348086
0.00379592
0.00337051
0.00245895
0.00185845
0.00180844
0.00194526
0.00188958
0.00157593
0.00121534
0.00112115
0.0031211
0.0031972
0.00340804
0.00351808
0.00336306
0.00335699
0.00350039
0.00334431
0.00310691
0.00333056
0.00369421
0.00342305
0.00255719
0.00185075
0.00168522
0.00180712
0.00181668
0.00158758
0.00125389
0.00110673
0.00317045
0.00323394
0.00340852
0.00349361
0.00335285
0.00334526
0.00348034
0.00334011
0.00306296
0.00318375
0.00355653
0.00343936
0.00267366
0.00189359
0.00159674
0.00167006
0.00172667
0.00157977
0.00130266
0.00113101
0.00321645
0.00326754
0.00341105
0.00347523
0.0033389
0.00332268
0.00345325
0.00333902
0.00303855
0.00305563
0.00339246
0.00340757
0.00278282
0.00198154
0.0015584
0.00154722
0.00162543
0.00155157
0.00134458
0.00118406
0.0032591
0.00329795
0.0034136
0.00346177
0.0033248
0.00329208
0.00341643
0.00333494
0.00303205
0.00295484
0.00322101
0.0033301
0.00286329
0.00209841
0.00157461
0.00145725
0.00152157
0.00150761
0.0013714
0.00124877
0.00329809
0.00332523
0.00341501
0.00345061
0.0033129
0.00325785
0.00336979
0.00332246
0.00303576
0.00288339
0.00306122
0.00321545
0.00290277
0.00221977
0.00163735
0.00141516
0.00143183
0.00145546
0.00138534
0.00131141
0.00333297
0.0033496
0.00341471
0.00343962
0.00330349
0.00322394
0.00331412
0.00329822
0.00304149
0.00283803
0.00292595
0.00307981
0.00289709
0.00232952
0.00173266
0.00142103
0.00137288
0.00140547
0.00139263
0.00136926
0.00336335
0.00337096
0.00341256
0.00342723
0.00329576
0.00318769
0.00325255
0.00326093
0.00304339
0.00281248
0.00281927
0.00294475
0.00285353
0.00241304
0.00184625
0.00147012
0.0013544
0.00137079
0.00139937
0.00142611
0.00338883
0.00338898
0.00340876
0.00341245
0.00328851
0.00316106
0.0031903
0.00321163
0.0030364
0.00279906
0.00273884
0.00282388
0.00278694
0.00246276
0.00196343
0.00155609
0.00137838
0.00136391
0.0014141
0.00148792
0.0034091
0.00340334
0.00340353
0.0033947
0.00327905
0.00313818
0.00313067
0.00315283
0.00301715
0.00278998
0.0026807
0.00272078
0.00271388
0.00248612
0.00207061
0.00167001
0.001446
0.00139522
0.00144898
0.00156102
0.00342411
0.00341373
0.00339688
0.0033743
0.00326579
0.00311774
0.00307551
0.0030875
0.00298455
0.00277803
0.00263937
0.0026362
0.00264167
0.00249357
0.00216453
0.00180104
0.00155764
0.00147407
0.00151862
0.0016546
0.00343377
0.00341984
0.00338869
0.00335186
0.00324826
0.00309752
0.00302504
0.00301895
0.00293926
0.00275811
0.00260675
0.00256848
0.0025724
0.00248991
0.0022493
0.00194126
0.00170941
0.00160944
0.00164164
0.00178726
0.00343822
0.00342158
0.00337876
0.00332775
0.00322666
0.00307582
0.00297833
0.00294974
0.00288332
0.0027271
0.00257434
0.00251299
0.00250802
0.00247527
0.00232648
0.00208883
0.00189478
0.00180674
0.00183944
0.00198955
0.00343767
0.00341894
0.0033665
0.00330201
0.00320127
0.00305177
0.00293454
0.00288132
0.00281885
0.00268492
0.00253635
0.00246231
0.00244912
0.00244946
0.00239109
0.00224322
0.00211119
0.00206911
0.00212874
0.00229347
0.00343253
0.00341192
0.0033524
0.00327478
0.00317249
0.00302498
0.0028926
0.00281497
0.00274829
0.00263262
0.00249148
0.00240925
0.00239318
0.00241474
0.00243783
0.00240011
0.00235691
0.00239658
0.00252228
0.00272342
0.00342319
0.00340101
0.0033365
0.00324642
0.00314066
0.00299551
0.00285164
0.00275128
0.0026746
0.0025717
0.00244238
0.00235503
0.00234009
0.00238029
0.0024696
0.00255565
0.00263413
0.0027865
0.00302157
0.00328666
0.00341042
0.00338652
0.00331885
0.00321787
0.0031063
0.00296335
0.002812
0.00269076
0.0026
0.00250534
0.00239334
0.00231318
0.00230674
0.00237391
0.0025233
0.00273417
0.00295901
0.00321514
0.00349754
0.00373838
0.00339517
0.00336922
0.00329939
0.0031898
0.00307081
0.00292874
0.00277403
0.00263627
0.00252842
0.00243608
0.00234552
0.00229261
0.00231431
0.00242406
0.00263343
0.00293022
0.00324655
0.00355393
0.0038433
0.00405789
0.00337814
0.0033504
0.00327889
0.00316229
0.00303582
0.00289287
0.00273773
0.00259113
0.00247032
0.00237376
0.00229611
0.00227731
0.0023544
0.00253037
0.00280679
0.00315571
0.00350368
0.00380516
0.0040506
0.00420584
0.00336108
0.00333054
0.00325815
0.00313675
0.00300266
0.0028573
0.00270256
0.00255464
0.00243318
0.00234526
0.00227561
0.00225385
0.00233903
0.00254708
0.00287714
0.00330268
0.00374604
0.0041258
0.00440165
0.00454228
0.00334472
0.00331173
0.00323838
0.00311413
0.00297354
0.00282533
0.00267031
0.00252105
0.00239887
0.00233401
0.00233329
0.00238747
0.00251504
0.00271141
0.00296471
0.00327937
0.0036332
0.00396502
0.00421765
0.00435158
0.00333046
0.00329565
0.00322088
0.00309553
0.00295083
0.00279987
0.00264857
0.00250529
0.00238304
0.00230184
0.00227397
0.00231572
0.00245974
0.00272552
0.00307947
0.00349692
0.00392754
0.00430569
0.00457038
0.00467173
0.00331899
0.00328193
0.00320521
0.0030786
0.00293002
0.00277386
0.0026199
0.00247535
0.00235558
0.00228579
0.00229375
0.0023841
0.0025536
0.00281384
0.00314317
0.00351356
0.00389776
0.00424535
0.0044968
0.00459316
0.0172724
0.0116524
0.00395231
-0.00194496
-0.00367827
-0.00279798
-0.00156331
-0.000715298
-0.000260422
-6.10767e-05
9.02291e-05
0.0002746
0.000376234
0.000399494
0.000495577
0.000653928
0.000781834
0.000883311
0.000960301
0.00102592
0.0011213
0.00121227
0.00126704
0.00132816
0.00140449
0.00147292
0.00156015
0.00167694
0.00178161
0.00186652
0.00196264
0.00207227
0.00216961
0.00225775
0.00236048
0.00247455
0.00258022
0.00268353
0.00279361
0.00290353
0.00300076
0.00308998
0.00318486
0.00327692
0.00336158
0.00344666
0.003525
0.00359959
0.00367815
0.00375208
0.00383565
0.00392915
0.00402196
0.00412548
0.00424735
0.00438054
0.00451246
0.00462884
0.00473419
0.00484695
0.00497186
0.00510615
0.0052374
0.00538711
0.00557821
0.00576991
0.00592843
0.00608676
0.0062715
0.00645029
0.00662611
0.00681787
0.00702701
0.00723821
0.00745709
0.00768702
0.00792344
0.00816698
0.00841494
0.00867174
0.00893312
0.00920235
0.0094734
0.00975282
0.0100365
0.0103283
0.0106255
0.0109274
0.0112361
0.0115458
0.0118662
0.01219
0.0125206
0.0128611
0.0131946
0.013544
0.0138802
0.0142138
0.01451
0.0147666
0.016463
0.0114794
0.00403174
-0.0017942
-0.00358358
-0.00275298
-0.00153593
-0.000696177
-0.000246266
-5.01762e-05
9.90295e-05
0.000282259
0.000382929
0.000405062
0.000500359
0.000658286
0.000785747
0.000886834
0.000963494
0.00102873
0.00112386
0.00121467
0.00126921
0.00133012
0.00140631
0.00147457
0.00156163
0.00167834
0.00178294
0.00186775
0.00196377
0.00207335
0.00217064
0.00225871
0.00236138
0.00247542
0.00258107
0.00268434
0.00279439
0.00290429
0.00300149
0.00309068
0.00318553
0.00327757
0.0033622
0.00344727
0.00352558
0.00360014
0.00367868
0.00375258
0.00383613
0.00392961
0.00402239
0.00412588
0.00424773
0.0043809
0.0045128
0.00462917
0.00473449
0.00484722
0.00497211
0.00510638
0.00523762
0.00538729
0.00557837
0.00577007
0.00592858
0.00608689
0.00627162
0.0064504
0.0066262
0.00681795
0.00702708
0.00723827
0.00745715
0.00768707
0.00792349
0.00816702
0.00841498
0.00867177
0.00893315
0.00920237
0.00947342
0.00975284
0.0100365
0.0103283
0.0106255
0.0109274
0.0112361
0.0115458
0.0118662
0.01219
0.0125206
0.0128611
0.0131946
0.013544
0.0138802
0.0142138
0.01451
0.0147666
0.0157059
0.0113008
0.0042012
-0.00150716
-0.00341584
-0.00269189
-0.00150784
-0.000675332
-0.000229226
-3.64358e-05
0.000109992
0.00029118
0.000390328
0.000411185
0.000505594
0.000662867
0.000789686
0.000890317
0.000966633
0.00103149
0.00112635
0.00121697
0.00127124
0.00133195
0.00140803
0.00147611
0.001563
0.00167964
0.00178417
0.00186886
0.00196479
0.00207433
0.00217157
0.00225955
0.00236217
0.0024762
0.00258181
0.00268504
0.00279507
0.00290496
0.00300214
0.00309128
0.00318611
0.00327814
0.00336274
0.00344779
0.0035261
0.00360062
0.00367914
0.00375301
0.00383653
0.00393001
0.00402277
0.00412623
0.00424805
0.00438121
0.0045131
0.00462946
0.00473476
0.00484746
0.00497233
0.00510658
0.0052378
0.00538744
0.00557852
0.00577022
0.00592872
0.006087
0.00627172
0.0064505
0.00662628
0.00681802
0.00702715
0.00723833
0.0074572
0.00768712
0.00792353
0.00816706
0.00841501
0.0086718
0.00893317
0.00920239
0.00947344
0.00975285
0.0100365
0.0103283
0.0106255
0.0109274
0.0112361
0.0115459
0.0118662
0.01219
0.0125206
0.0128611
0.0131946
0.013544
0.0138802
0.0142138
0.01451
0.0147666
0.0149908
0.011119
0.00442292
-0.00114181
-0.00318556
-0.00260561
-0.00146756
-0.00064464
-0.000204059
-1.61721e-05
0.000125892
0.000303312
0.000400083
0.000419712
0.00051309
0.00066911
0.000794778
0.000894765
0.00097073
0.00103518
0.00112963
0.00121986
0.00127377
0.00133424
0.00141015
0.001478
0.00156467
0.00168118
0.00178559
0.00187015
0.00196598
0.00207545
0.00217258
0.00226047
0.00236302
0.002477
0.00258256
0.00268576
0.00279577
0.00290564
0.00300281
0.00309192
0.00318672
0.00327873
0.0033633
0.00344834
0.00352663
0.00360113
0.00367963
0.00375346
0.00383695
0.00393042
0.00402316
0.00412659
0.0042484
0.00438155
0.00451343
0.00462978
0.00473505
0.00484773
0.00497256
0.0051068
0.005238
0.00538761
0.00557869
0.0057704
0.00592887
0.00608712
0.00627184
0.00645061
0.00662637
0.0068181
0.00702722
0.0072384
0.00745725
0.00768717
0.00792357
0.0081671
0.00841505
0.00867183
0.0089332
0.00920242
0.00947346
0.00975287
0.0100365
0.0103283
0.0106256
0.0109274
0.0112361
0.0115459
0.0118663
0.01219
0.0125206
0.0128611
0.0131946
0.013544
0.0138802
0.0142138
0.0145101
0.0147666
0.0142939
0.0109178
0.00465281
-0.000755875
-0.00293189
-0.00250775
-0.00142156
-0.000607256
-0.000171478
1.12178e-05
0.000147836
0.000319756
0.000413229
0.000431752
0.000523921
0.000677883
0.000801651
0.000900649
0.000976292
0.00104042
0.0011343
0.0012239
0.00127734
0.00133748
0.00141313
0.00148066
0.00156699
0.00168321
0.00178745
0.00187189
0.00196759
0.00207688
0.00217387
0.00226161
0.00236404
0.00247791
0.0025834
0.00268655
0.00279654
0.00290639
0.00300354
0.00309262
0.00318741
0.00327938
0.0033639
0.00344894
0.00352723
0.0036017
0.00368018
0.00375397
0.00383742
0.00393088
0.00402361
0.00412704
0.00424883
0.00438194
0.00451381
0.00463016
0.00473541
0.00484806
0.00497285
0.00510707
0.00523825
0.00538784
0.00557891
0.00577062
0.00592907
0.00608728
0.00627199
0.00645075
0.00662648
0.0068182
0.00702732
0.00723848
0.00745733
0.00768724
0.00792363
0.00816715
0.00841509
0.00867187
0.00893324
0.00920245
0.00947349
0.0097529
0.0100365
0.0103283
0.0106256
0.0109274
0.0112361
0.0115459
0.0118663
0.0121901
0.0125206
0.0128611
0.0131946
0.013544
0.0138802
0.0142138
0.0145102
0.0147666
0.0136141
0.0106886
0.00487071
-0.000368492
-0.00266717
-0.00240448
-0.00137525
-0.000568083
-0.000134995
4.32245e-05
0.000174068
0.000339523
0.00042925
0.000446944
0.000537865
0.000689177
0.000810401
0.000908024
0.000983366
0.0010473
0.00114046
0.0012293
0.00128227
0.00134204
0.00141731
0.00148444
0.00157021
0.00168587
0.00178985
0.00187424
0.00196977
0.0020788
0.00217557
0.00226314
0.00236534
0.00247899
0.00258434
0.00268743
0.00279737
0.00290718
0.00300433
0.00309342
0.00318818
0.0032801
0.00336458
0.00344962
0.00352792
0.00360239
0.00368085
0.00375457
0.00383795
0.00393141
0.00402416
0.00412759
0.00424936
0.00438242
0.00451427
0.00463063
0.00473589
0.00484849
0.00497322
0.00510742
0.0052386
0.00538816
0.00557922
0.00577092
0.00592934
0.00608751
0.00627221
0.00645094
0.00662664
0.00681834
0.00702745
0.0072386
0.00745743
0.00768733
0.00792372
0.00816723
0.00841516
0.00867193
0.00893329
0.0092025
0.00947353
0.00975293
0.0100366
0.0103284
0.0106256
0.0109274
0.0112362
0.0115459
0.0118663
0.0121901
0.0125206
0.0128611
0.0131946
0.013544
0.0138802
0.0142139
0.0145103
0.0147666
0.0129553
0.01043
0.00507049
1.72801e-05
-0.00239151
-0.00229494
-0.00132908
-0.000528604
-9.61514e-05
7.8212e-05
0.000202984
0.000361406
0.000447117
0.000464123
0.000553834
0.000702253
0.0008206
0.000916589
0.000991635
0.00105546
0.00114782
0.00123586
0.00128852
0.00134798
0.00142284
0.00148953
0.00157452
0.00168928
0.00179285
0.00187725
0.00197261
0.00208128
0.00217782
0.00226521
0.00236705
0.00248032
0.00258545
0.00268845
0.00279828
0.00290801
0.00300517
0.00309429
0.00318903
0.00328088
0.00336533
0.0034504
0.00352875
0.00360324
0.00368168
0.0037553
0.00383858
0.00393201
0.00402481
0.00412831
0.00425005
0.00438302
0.00451483
0.00463124
0.00473653
0.00484907
0.0049737
0.00510786
0.00523907
0.00538863
0.00557966
0.00577133
0.00592972
0.00608786
0.00627252
0.00645121
0.00662687
0.00681856
0.00702765
0.00723878
0.00745758
0.00768747
0.00792384
0.00816734
0.00841526
0.00867202
0.00893336
0.00920257
0.00947359
0.00975298
0.0100366
0.0103284
0.0106256
0.0109275
0.0112362
0.0115459
0.0118663
0.0121901
0.0125206
0.0128612
0.0131947
0.013544
0.0138803
0.014214
0.0145104
0.0147667
0.0123224
0.0101463
0.00525062
0.000401285
-0.00210347
-0.00217706
-0.00128244
-0.000489413
-5.57005e-05
0.000115478
0.000233914
0.000384847
0.000466203
0.000482448
0.000570977
0.00071645
0.000831788
0.000926002
0.00100072
0.00106446
0.00115595
0.0012432
0.00129574
0.00135504
0.00142958
0.00149588
0.00157992
0.00169345
0.00179646
0.00188085
0.00197601
0.00208426
0.00218062
0.00226787
0.00236929
0.00248201
0.00258682
0.00268965
0.00279929
0.00290887
0.00300605
0.00309523
0.00318994
0.0032817
0.00336612
0.00345125
0.00352973
0.00360429
0.00368273
0.00375625
0.00383937
0.00393273
0.0040256
0.0041292
0.00425091
0.00438375
0.0045155
0.00463202
0.00473741
0.00484987
0.00497432
0.00510843
0.00523971
0.00538928
0.00558026
0.00577188
0.00593026
0.00608837
0.00627298
0.0064516
0.00662722
0.00681888
0.00702794
0.00723903
0.00745781
0.00768767
0.00792402
0.0081675
0.0084154
0.00867215
0.00893348
0.00920267
0.00947368
0.00975306
0.0100367
0.0103285
0.0106257
0.0109275
0.0112362
0.0115459
0.0118663
0.0121901
0.0125207
0.0128612
0.0131947
0.013544
0.0138803
0.0142141
0.0145106
0.0147668
0.0117216
0.00984388
0.00540929
0.000781461
-0.00180334
-0.00204971
-0.00123512
-0.000451378
-1.4445e-05
0.000154678
0.000266695
0.000409656
0.00048622
0.000501541
0.000588918
0.000731453
0.000843718
0.000936057
0.00101039
0.00107402
0.00116459
0.00125103
0.00130355
0.00136286
0.0014372
0.00150319
0.00158623
0.00169834
0.00180061
0.00188494
0.00197983
0.00208762
0.00218385
0.00227108
0.00237203
0.00248409
0.0025885
0.00269109
0.00280044
0.00290979
0.00300698
0.00309625
0.00319091
0.00328254
0.00336691
0.00345214
0.0035308
0.00360554
0.00368403
0.00375747
0.00384039
0.00393362
0.00402657
0.0041303
0.00425196
0.0043846
0.00451629
0.00463299
0.00473857
0.00485094
0.00497513
0.00510915
0.00524053
0.00539016
0.00558104
0.00577259
0.00593099
0.0060891
0.00627363
0.00645215
0.00662774
0.00681936
0.00702836
0.0072394
0.00745814
0.00768797
0.00792428
0.00816774
0.00841561
0.00867233
0.00893364
0.00920281
0.00947381
0.00975318
0.0100368
0.0103285
0.0106258
0.0109276
0.0112363
0.011546
0.0118664
0.0121902
0.0125207
0.0128612
0.0131947
0.0135441
0.0138804
0.0142142
0.0145109
0.0147669
0.0111578
0.00952847
0.00554328
0.00115396
-0.00149257
-0.00191196
-0.00118676
-0.000415266
2.69186e-05
0.000195701
0.000301416
0.000435847
0.000507106
0.000521311
0.000607563
0.000747174
0.0008563
0.000946666
0.00102056
0.00108407
0.00117367
0.00125926
0.0013118
0.00137118
0.00144541
0.00151117
0.00159322
0.0017038
0.00180523
0.00188943
0.00198397
0.00209123
0.00218738
0.00227468
0.0023752
0.00248655
0.00259049
0.0026928
0.00280176
0.00291079
0.00300796
0.00309734
0.00319193
0.0032834
0.00336767
0.00345299
0.00353191
0.00360691
0.00368555
0.00375897
0.00384169
0.00393477
0.00402778
0.00413164
0.0042532
0.00438555
0.00451714
0.00463412
0.00474003
0.00485235
0.00497621
0.00511007
0.00524157
0.00539125
0.00558199
0.00577344
0.00593192
0.00609007
0.00627449
0.00645291
0.00662845
0.00682003
0.00702895
0.00723992
0.00745861
0.00768839
0.00792466
0.00816807
0.00841591
0.0086726
0.00893387
0.00920302
0.009474
0.00975334
0.0100369
0.0103287
0.0106259
0.0109277
0.0112364
0.0115461
0.0118664
0.0121902
0.0125208
0.0128613
0.0131948
0.0135441
0.0138804
0.0142144
0.0145113
0.014767
0.0106336
0.00920473
0.00564913
0.00151472
-0.00117244
-0.00176228
-0.00113628
-0.000381368
6.78622e-05
0.000238518
0.000338292
0.000463586
0.000528928
0.000541775
0.000626918
0.000763617
0.000869523
0.000957814
0.00103121
0.00109461
0.00118322
0.00126791
0.00132043
0.0013799
0.00145404
0.00151962
0.00160071
0.00170971
0.00181022
0.00189423
0.00198836
0.00209504
0.00219113
0.00227857
0.0023787
0.0024893
0.00259275
0.00269473
0.00280325
0.00291189
0.003009
0.00309849
0.00319302
0.00328429
0.00336843
0.0034538
0.00353298
0.00360831
0.0036872
0.00376069
0.00384328
0.00393621
0.00402931
0.00413328
0.00425466
0.00438659
0.004518
0.00463531
0.0047417
0.00485408
0.0049776
0.00511126
0.00524286
0.00539258
0.00558307
0.00577439
0.00593301
0.00609127
0.00627558
0.00645388
0.0066294
0.00682092
0.00702974