/*--------------------------------*- C++ -*----------------------------------*\
| =========                 |                                                 |
| \\      /  F ield         | OpenFOAM: The Open Source CFD Toolbox           |
|  \\    /   O peration     | Version:  3.0.1                                 |
|   \\  /    A nd           | Web:      www.OpenFOAM.org                      |
|    \\/     M anipulation  |                                                 |
\*---------------------------------------------------------------------------*/
FoamFile
{
    version     2.0;
    format      ascii;
    class       surfaceScalarField;
    location    "0.7";
    object      phi;
}
// * * * * * * * * * * * * * * * * * * * * * * * * * * * * * * * * * * * * * //

dimensions      [0 3 -1 0 0 0 0];

internalField   nonuniform List<scalar> 
19000
(
1.17749e-06
-7.84258e-07
1.15342e-06
4.64827e-07
1.16602e-06
4.93987e-08
1.16633e-06
-1.10361e-07
1.2113e-06
-4.02782e-07
1.22003e-06
1.53152e-07
1.21088e-06
3.13299e-08
1.20564e-06
6.12228e-07
1.20283e-06
4.14889e-08
1.1877e-06
2.48199e-07
1.1979e-06
-3.95746e-07
1.18916e-06
-1.89682e-07
1.20132e-06
-2.82656e-07
1.19586e-06
-9.98846e-08
1.20871e-06
-1.07766e-07
1.20722e-06
-7.85735e-08
1.21549e-06
-8.15354e-08
1.21056e-06
-1.54793e-08
1.20884e-06
1.543e-08
5.11368e-08
1.18045e-06
1.23658e-06
-7.96575e-07
1.21506e-06
4.86342e-07
1.22591e-06
3.85502e-08
1.22702e-06
-1.11473e-07
1.2724e-06
-4.48164e-07
1.28369e-06
1.41868e-07
1.27212e-06
4.28984e-08
1.27338e-06
6.10966e-07
1.2647e-06
5.01727e-08
1.25676e-06
2.56135e-07
1.25911e-06
-3.98091e-07
1.25537e-06
-1.85944e-07
1.2602e-06
-2.87488e-07
1.26421e-06
-1.03891e-07
1.26539e-06
-1.08944e-07
1.27732e-06
-9.05117e-08
1.26858e-06
-7.27878e-08
1.28366e-06
-3.05614e-08
1.25692e-06
4.21651e-08
4.22412e-08
1.26582e-06
1.29587e-06
-8.09662e-07
1.28538e-06
4.96834e-07
1.28954e-06
3.4388e-08
1.29314e-06
-1.1507e-07
1.33412e-06
-4.89147e-07
1.35257e-06
1.23422e-07
1.33719e-06
5.827e-08
1.34493e-06
6.03234e-07
1.32863e-06
6.64719e-08
1.32511e-06
2.59649e-07
1.31507e-06
-3.88043e-07
1.318e-06
-1.88882e-07
1.31537e-06
-2.84852e-07
1.32714e-06
-1.15668e-07
1.32338e-06
-1.05181e-07
1.3375e-06
-1.04626e-07
1.32919e-06
-6.44849e-08
1.3393e-06
-4.06701e-08
1.32582e-06
5.56479e-08
5.16068e-08
1.31645e-06
1.35563e-06
-8.21188e-07
1.35819e-06
4.94276e-07
1.35434e-06
3.82372e-08
1.35973e-06
-1.20461e-07
1.39395e-06
-5.23363e-07
1.41937e-06
9.79965e-08
1.40491e-06
7.27261e-08
1.41374e-06
5.94409e-07
1.39316e-06
8.70469e-08
1.38774e-06
2.6507e-07
1.36898e-06
-3.69282e-07
1.37289e-06
-1.92794e-07
1.36925e-06
-2.8121e-07
1.38194e-06
-1.28354e-07
1.38137e-06
-1.04615e-07
1.39169e-06
-1.14946e-07
1.38928e-06
-6.20732e-08
1.39458e-06
-4.59744e-08
1.38936e-06
6.08671e-08
6.35107e-08
1.37746e-06
1.4164e-06
-8.2923e-07
1.42982e-06
4.80853e-07
1.41937e-06
4.86902e-08
1.42436e-06
-1.25453e-07
1.45129e-06
-5.50292e-07
1.48059e-06
6.86889e-08
1.47265e-06
8.06672e-08
1.47905e-06
5.88013e-07
1.45748e-06
1.08613e-07
1.448e-06
2.74552e-07
1.42526e-06
-3.4654e-07
1.42735e-06
-1.94881e-07
1.42484e-06
-2.787e-07
1.43682e-06
-1.40335e-07
1.43904e-06
-1.06833e-07
1.44723e-06
-1.23139e-07
1.44729e-06
-6.21286e-08
1.45162e-06
-5.03057e-08
1.44958e-06
6.29012e-08
7.39829e-08
1.43911e-06
1.47943e-06
-8.32985e-07
1.49897e-06
4.61317e-07
1.48545e-06
6.22018e-08
1.48808e-06
-1.28083e-07
1.50801e-06
-5.7022e-07
1.53734e-06
3.93645e-08
1.538e-06
8.00042e-08
1.54198e-06
5.84029e-07
1.52126e-06
1.29339e-07
1.50982e-06
2.85992e-07
1.48625e-06
-3.22969e-07
1.48684e-06
-1.95477e-07
1.48445e-06
-2.7631e-07
1.49576e-06
-1.51638e-07
1.49854e-06
-1.09619e-07
1.50563e-06
-1.30225e-07
1.50621e-06
-6.2709e-08
1.50974e-06
-5.38434e-08
1.51016e-06
6.24837e-08
8.33523e-08
1.50079e-06
1.54594e-06
-8.32709e-07
1.56665e-06
4.40611e-07
1.55394e-06
7.49035e-08
1.55381e-06
-1.27945e-07
1.56693e-06
-5.83342e-07
1.5931e-06
1.31947e-08
1.60022e-06
7.28806e-08
1.60364e-06
5.8061e-07
1.585e-06
1.4798e-07
1.57502e-06
2.95977e-07
1.55254e-06
-3.0049e-07
1.5527e-06
-1.95636e-07
1.54927e-06
-2.72883e-07
1.5595e-06
-1.61873e-07
1.56157e-06
-1.1169e-07
1.56732e-06
-1.35973e-07
1.56783e-06
-6.32179e-08
1.56982e-06
-5.58353e-08
1.57218e-06
6.01231e-08
9.17972e-08
1.56374e-06
1.61659e-06
-8.2917e-07
1.63507e-06
4.22131e-07
1.62579e-06
8.41794e-08
1.62395e-06
-1.26102e-07
1.63034e-06
-5.89735e-07
1.65137e-06
-7.83429e-09
1.66089e-06
6.33616e-08
1.66543e-06
5.76072e-07
1.65011e-06
1.63305e-07
1.64418e-06
3.01899e-07
1.62396e-06
-2.80269e-07
1.62438e-06
-1.96049e-07
1.61944e-06
-2.67946e-07
1.62811e-06
-1.70545e-07
1.62896e-06
-1.12533e-07
1.63296e-06
-1.39977e-07
1.63313e-06
-6.33907e-08
1.63301e-06
-5.57168e-08
1.63649e-06
5.66504e-08
9.94875e-08
1.6288e-06
1.69152e-06
-8.23114e-07
1.70644e-06
4.07209e-07
1.70146e-06
8.91607e-08
1.69945e-06
-1.24089e-07
1.69952e-06
-5.89805e-07
1.71466e-06
-2.29746e-08
1.72308e-06
5.4933e-08
1.72953e-06
5.69625e-07
1.71839e-06
1.74448e-07
1.71768e-06
3.02611e-07
1.70015e-06
-2.62744e-07
1.70108e-06
-1.96974e-07
1.69466e-06
-2.61529e-07
1.70156e-06
-1.77447e-07
1.70114e-06
-1.12117e-07
1.70319e-06
-1.42023e-07
1.70292e-06
-6.31178e-08
1.70042e-06
-5.32222e-08
1.70413e-06
5.29471e-08
1.06661e-07
1.69695e-06
1.77068e-06
-8.15072e-07
1.78232e-06
3.95572e-07
1.78115e-06
9.03296e-08
1.78006e-06
-1.22996e-07
1.77474e-06
-5.8449e-07
1.78438e-06
-3.26115e-08
1.78994e-06
4.93726e-08
1.79841e-06
5.61158e-07
1.79151e-06
1.81339e-07
1.79587e-06
2.98258e-07
1.7808e-06
-2.47676e-07
1.78221e-06
-1.9838e-07
1.77457e-06
-2.5389e-07
1.77976e-06
-1.82645e-07
1.77836e-06
-1.1071e-07
1.77842e-06
-1.42086e-07
1.77774e-06
-6.24404e-08
1.77292e-06
-4.84026e-08
1.77612e-06
4.97509e-08
1.1343e-07
1.76935e-06
1.85408e-06
-8.05406e-07
1.86351e-06
3.86143e-07
1.86501e-06
8.88301e-08
1.86518e-06
-1.23166e-07
1.85574e-06
-5.75053e-07
1.86109e-06
-3.79552e-08
1.86359e-06
4.68712e-08
1.87391e-06
5.50833e-07
1.87058e-06
1.84672e-07
1.87904e-06
2.89796e-07
1.86577e-06
-2.34399e-07
1.86746e-06
-2.00073e-07
1.85891e-06
-2.45344e-07
1.86259e-06
-1.86323e-07
1.8606e-06
-1.08715e-07
1.85879e-06
-1.40278e-07
1.85785e-06
-6.15048e-08
1.85105e-06
-4.16056e-08
1.85324e-06
4.7564e-08
1.19656e-07
1.84701e-06
1.94184e-06
-7.94402e-07
1.95026e-06
3.7772e-07
1.95319e-06
8.58994e-08
1.95442e-06
-1.24395e-07
1.94208e-06
-5.62715e-07
1.94468e-06
-4.05551e-08
1.94484e-06
4.67085e-08
1.95683e-06
5.38845e-07
1.95598e-06
1.85518e-07
1.96734e-06
2.78442e-07
1.95507e-06
-2.22129e-07
1.95678e-06
-2.01781e-07
1.9476e-06
-2.3617e-07
1.94993e-06
-1.88651e-07
1.94775e-06
-1.06531e-07
1.94426e-06
-1.36791e-07
1.94322e-06
-6.04696e-08
1.93502e-06
-3.33994e-08
1.93593e-06
4.66558e-08
1.25003e-07
1.93058e-06
2.03409e-06
-7.82308e-07
2.04247e-06
3.69344e-07
2.04582e-06
8.25478e-08
2.04771e-06
-1.26284e-07
2.03339e-06
-5.48394e-07
2.03467e-06
-4.18352e-08
2.03346e-06
4.7925e-08
2.04696e-06
5.25336e-07
2.04757e-06
1.84909e-07
2.06072e-06
2.65295e-07
2.04881e-06
-2.10224e-07
2.05026e-06
-2.03226e-07
2.04069e-06
-2.26605e-07
2.04176e-06
-1.89715e-07
2.03971e-06
-1.04478e-07
2.03479e-06
-1.3187e-07
2.03373e-06
-5.94186e-08
2.02479e-06
-2.44579e-08
2.02437e-06
4.70794e-08
1.2912e-07
2.02025e-06
2.131e-06
-7.69312e-07
2.13996e-06
3.60387e-07
2.14305e-06
7.9456e-08
2.14527e-06
-1.28503e-07
2.12954e-06
-5.32664e-07
2.13054e-06
-4.28297e-08
2.12872e-06
4.97368e-08
2.14364e-06
5.10416e-07
2.14495e-06
1.83608e-07
2.15908e-06
2.5116e-07
2.14716e-06
-1.983e-07
2.1481e-06
-2.04174e-07
2.13836e-06
-2.16864e-07
2.13818e-06
-1.8953e-07
2.13645e-06
-1.02752e-07
2.13038e-06
-1.25797e-07
2.12927e-06
-5.83107e-08
2.12025e-06
-1.54359e-08
2.11861e-06
4.87211e-08
1.31801e-07
2.11593e-06
2.23271e-06
-7.55531e-07
2.24259e-06
3.50509e-07
2.24503e-06
7.70093e-08
2.24742e-06
-1.30891e-07
2.23058e-06
-5.15825e-07
2.23189e-06
-4.41409e-08
2.22995e-06
5.16749e-08
2.24617e-06
4.94199e-07
2.24772e-06
1.8206e-07
2.26232e-06
2.36559e-07
2.25025e-06
-1.86229e-07
2.25053e-06
-2.0445e-07
2.24083e-06
-2.07165e-07
2.23938e-06
-1.88084e-07
2.23804e-06
-1.01413e-07
2.23112e-06
-1.18877e-07
2.2298e-06
-5.69895e-08
2.22123e-06
-6.863e-09
2.21857e-06
5.13761e-08
1.3304e-07
2.21733e-06
2.33936e-06
-7.41016e-07
2.35032e-06
3.39551e-07
2.35194e-06
7.53873e-08
2.35449e-06
-1.33442e-07
2.33669e-06
-4.9802e-07
2.33858e-06
-4.60317e-08
2.33671e-06
5.35465e-08
2.35407e-06
4.76835e-07
2.35567e-06
1.80456e-07
2.37042e-06
2.21809e-07
2.35828e-06
-1.74081e-07
2.35776e-06
-2.03932e-07
2.34831e-06
-1.97719e-07
2.34562e-06
-1.85395e-07
2.34461e-06
-1.00398e-07
2.33715e-06
-1.11421e-07
2.33539e-06
-5.52241e-08
2.32764e-06
8.88603e-10
2.3242e-06
5.4813e-08
1.33013e-07
2.32423e-06
2.45115e-06
-7.2577e-07
2.46325e-06
3.27454e-07
2.46398e-06
7.46544e-08
2.46678e-06
-1.3624e-07
2.44808e-06
-4.79327e-07
2.45061e-06
-4.8553e-08
2.44883e-06
5.53267e-08
2.46715e-06
4.58509e-07
2.46878e-06
1.78824e-07
2.48347e-06
2.0712e-07
2.47143e-06
-1.62043e-07
2.47005e-06
-2.02545e-07
2.46103e-06
-1.88697e-07
2.45719e-06
-1.81559e-07
2.45634e-06
-9.9554e-08
2.44864e-06
-1.03716e-07
2.44622e-06
-5.28006e-08
2.43946e-06
7.64163e-09
2.43549e-06
5.87827e-08
1.32022e-07
2.43648e-06
2.5683e-06
-7.09775e-07
2.58155e-06
3.14202e-07
2.58138e-06
7.48223e-08
2.58453e-06
-1.39392e-07
2.56502e-06
-4.59808e-07
2.56811e-06
-5.16467e-08
2.56638e-06
5.70523e-08
2.58546e-06
4.39437e-07
2.58719e-06
1.77092e-07
2.60165e-06
1.92661e-07
2.58994e-06
-1.5034e-07
2.58765e-06
-2.00254e-07
2.57915e-06
-1.80197e-07
2.57434e-06
-1.76745e-07
2.57347e-06
-9.86813e-08
2.56575e-06
-9.59977e-08
2.5626e-06
-4.96558e-08
2.55678e-06
1.34652e-08
2.55255e-06
6.30104e-08
1.30433e-07
2.55414e-06
2.69106e-06
-6.93004e-07
2.70546e-06
2.99798e-07
2.7044e-06
7.58844e-08
2.708e-06
-1.42988e-07
2.68773e-06
-4.39539e-07
2.69129e-06
-5.52096e-08
2.68959e-06
5.87499e-08
2.70919e-06
4.19844e-07
2.71114e-06
1.75138e-07
2.7252e-06
1.78601e-07
2.71405e-06
-1.39188e-07
2.71087e-06
-1.97074e-07
2.70289e-06
-1.72224e-07
2.69734e-06
-1.7119e-07
2.69623e-06
-9.75734e-08
2.68865e-06
-8.84132e-08
2.68487e-06
-4.58761e-08
2.67976e-06
1.85685e-08
2.67554e-06
6.7235e-08
1.28586e-07
2.67739e-06
2.8197e-06
-6.75436e-07
2.83525e-06
2.8425e-07
2.83331e-06
7.78275e-08
2.8374e-06
-1.47078e-07
2.81647e-06
-4.18612e-07
2.82038e-06
-5.91197e-08
2.81873e-06
6.03972e-08
2.83861e-06
3.99962e-07
2.84094e-06
1.72811e-07
2.85444e-06
1.65106e-07
2.84399e-06
-1.28746e-07
2.83999e-06
-1.93075e-07
2.83246e-06
-1.64691e-07
2.82641e-06
-1.65142e-07
2.82491e-06
-9.60685e-08
2.81751e-06
-8.10137e-08
2.81324e-06
-4.16118e-08
2.80867e-06
2.31387e-08
2.80464e-06
7.12643e-08
1.26736e-07
2.8065e-06
2.95452e-06
-6.57057e-07
2.97119e-06
2.67572e-07
2.96839e-06
8.06313e-08
2.97298e-06
-1.5167e-07
2.95151e-06
-3.97142e-07
2.95563e-06
-6.32424e-08
2.95412e-06
6.19138e-08
2.97405e-06
3.80026e-07
2.97692e-06
1.69946e-07
2.9897e-06
1.52321e-07
2.98004e-06
-1.1908e-07
2.97536e-06
-1.88392e-07
2.96812e-06
-1.57456e-07
2.96177e-06
-1.58796e-07
2.95981e-06
-9.41084e-08
2.95254e-06
-7.37398e-08
2.94795e-06
-3.70212e-08
2.94382e-06
2.72671e-08
2.94009e-06
7.49942e-08
1.25029e-07
2.9418e-06
3.09581e-06
-6.37861e-07
3.1136e-06
2.49786e-07
3.10996e-06
8.42637e-08
3.11502e-06
-1.56727e-07
3.09315e-06
-3.75266e-07
3.09733e-06
-6.74264e-08
3.09608e-06
6.31656e-08
3.11583e-06
3.60271e-07
3.11939e-06
1.66386e-07
3.13137e-06
1.40345e-07
3.12245e-06
-1.10161e-07
3.11728e-06
-1.83218e-07
3.11017e-06
-1.50351e-07
3.10364e-06
-1.5227e-07
3.10127e-06
-9.17382e-08
3.09401e-06
-6.6477e-08
3.08919e-06
-3.22008e-08
3.08552e-06
3.09426e-08
3.08213e-06
7.83772e-08
1.23532e-07
3.08363e-06
3.2439e-06
-6.1785e-07
3.26276e-06
2.30924e-07
3.25835e-06
8.86746e-08
3.2638e-06
-1.62175e-07
3.24168e-06
-3.53149e-07
3.24575e-06
-7.14983e-08
3.24494e-06
6.39766e-08
3.26429e-06
3.40924e-07
3.26865e-06
1.62024e-07
3.27981e-06
1.2919e-07
3.27152e-06
-1.0187e-07
3.26606e-06
-1.77764e-07
3.25895e-06
-1.43242e-07
3.25226e-06
-1.45575e-07
3.24959e-06
-8.90665e-08
3.24226e-06
-5.91512e-08
3.23719e-06
-2.71327e-08
3.23404e-06
3.40923e-08
3.23106e-06
8.13645e-08
1.22262e-07
3.23233e-06
3.39912e-06
-5.97037e-07
3.41901e-06
2.11035e-07
3.41389e-06
9.37927e-08
3.41962e-06
-1.67905e-07
3.39745e-06
-3.30979e-07
3.40121e-06
-7.52617e-08
3.40105e-06
6.41442e-08
3.41977e-06
3.22199e-07
3.42499e-06
1.56809e-07
3.43539e-06
1.18784e-07
3.42755e-06
-9.40316e-08
3.42202e-06
-1.72226e-07
3.41483e-06
-1.36056e-07
3.40789e-06
-1.38638e-07
3.40502e-06
-8.61912e-08
3.39767e-06
-5.18071e-08
3.39225e-06
-2.17091e-08
3.38968e-06
3.66652e-08
3.38718e-06
8.38624e-08
1.21211e-07
3.38823e-06
3.56182e-06
-5.75442e-07
3.58267e-06
1.90182e-07
3.57694e-06
9.95219e-08
3.58281e-06
-1.73776e-07
3.56081e-06
-3.08974e-07
3.56404e-06
-7.84991e-08
3.56473e-06
6.34534e-08
3.58264e-06
3.04288e-07
3.58869e-06
1.50759e-07
3.5985e-06
1.0898e-07
3.59091e-06
-8.64458e-08
3.58543e-06
-1.66741e-07
3.5782e-06
-1.28824e-07
3.57085e-06
-1.3129e-07
3.56784e-06
-8.31861e-08
3.5606e-06
-4.45651e-08
3.55475e-06
-1.58537e-08
3.55269e-06
3.87235e-08
3.55083e-06
8.57195e-08
1.20347e-07
3.55169e-06
3.73236e-06
-5.53095e-07
3.75409e-06
1.68449e-07
3.74787e-06
1.0574e-07
3.75372e-06
-1.79618e-07
3.73211e-06
-2.87372e-07
3.73459e-06
-8.09755e-08
3.73635e-06
6.169e-08
3.7533e-06
2.87341e-07
3.76009e-06
1.43968e-07
3.76949e-06
9.95786e-08
3.76198e-06
-7.89339e-08
3.75658e-06
-1.61345e-07
3.74944e-06
-1.21678e-07
3.74146e-06
-1.23311e-07
3.73834e-06
-8.00669e-08
3.7314e-06
-3.76215e-08
3.72511e-06
-9.56373e-09
3.72339e-06
4.04458e-08
3.72232e-06
8.67824e-08
1.19575e-07
3.72309e-06
3.91113e-06
-5.30036e-07
3.93364e-06
1.45941e-07
3.92708e-06
1.12295e-07
3.9327e-06
-1.85232e-07
3.91176e-06
-2.66435e-07
3.91324e-06
-8.24529e-08
3.91625e-06
5.86778e-08
3.93216e-06
2.71424e-07
3.93954e-06
1.36598e-07
3.94872e-06
9.03962e-08
3.94118e-06
-7.13993e-08
3.93579e-06
-1.55951e-07
3.92893e-06
-1.14817e-07
3.92015e-06
-1.14534e-07
3.91683e-06
-7.67457e-08
3.9104e-06
-3.1192e-08
3.90379e-06
-2.9553e-09
3.90215e-06
4.20867e-08
3.90195e-06
8.69823e-08
1.18712e-07
3.90281e-06
4.09853e-06
-5.06316e-07
4.12169e-06
1.22781e-07
4.11497e-06
1.19013e-07
4.12014e-06
-1.90397e-07
4.10013e-06
-2.46431e-07
4.10039e-06
-8.27114e-08
4.10474e-06
5.43299e-08
4.11968e-06
2.56486e-07
4.12741e-06
1.28868e-07
4.13652e-06
8.12819e-08
4.12896e-06
-6.38368e-08
4.12338e-06
-1.5037e-07
4.11699e-06
-1.08432e-07
4.10738e-06
-1.04924e-07
4.10369e-06
-7.30492e-08
4.09796e-06
-2.54668e-08
4.09126e-06
3.74892e-09
4.08944e-06
4.39023e-08
4.09001e-06
8.64099e-08
1.17506e-07
4.09122e-06
4.29498e-06
-4.81993e-07
4.31865e-06
9.91157e-08
4.31197e-06
1.25693e-07
4.31645e-06
-1.9488e-07
4.29764e-06
-2.27626e-07
4.29653e-06
-8.15948e-08
4.30218e-06
4.86752e-08
4.31628e-06
2.4239e-07
4.32412e-06
1.21023e-07
4.33327e-06
7.21353e-08
4.32575e-06
-5.63138e-08
4.31972e-06
-1.44341e-07
4.31393e-06
-1.02648e-07
4.30362e-06
-9.46083e-08
4.29933e-06
-6.87626e-08
4.29445e-06
-2.05818e-08
4.28793e-06
1.0269e-08
4.28577e-06
4.60606e-08
4.28686e-06
8.53128e-08
1.15721e-07
4.28865e-06
4.50092e-06
-4.57139e-07
4.52493e-06
7.51093e-08
4.5185e-06
1.3212e-07
4.52207e-06
-1.98448e-07
4.50471e-06
-2.10274e-07
4.50212e-06
-7.90038e-08
4.50896e-06
4.18335e-08
4.52241e-06
2.28945e-07
4.53011e-06
1.13323e-07
4.53936e-06
6.2884e-08
4.53194e-06
-4.88954e-08
4.52525e-06
-1.37646e-07
4.52008e-06
-9.7482e-08
4.50933e-06
-8.38586e-08
4.50423e-06
-6.36609e-08
4.50025e-06
-1.66035e-08
4.49419e-06
1.63349e-08
4.49167e-06
4.85772e-08
4.49295e-06
8.40327e-08
1.13252e-07
4.49542e-06
4.71681e-06
-4.31831e-07
4.74097e-06
5.09439e-08
4.73502e-06
1.38076e-07
4.73746e-06
-2.00888e-07
4.72178e-06
-1.94594e-07
4.71767e-06
-7.48942e-08
4.72551e-06
3.39953e-08
4.73853e-06
2.15923e-07
4.74581e-06
1.0604e-07
4.75522e-06
5.34774e-08
4.74796e-06
-4.16371e-08
4.74044e-06
-1.30128e-07
4.73586e-06
-9.29046e-08
4.72501e-06
-7.30056e-08
4.71896e-06
-5.76049e-08
4.71575e-06
-1.34023e-08
4.71043e-06
2.16565e-08
4.70766e-06
5.13516e-08
4.70882e-06
8.28694e-08
1.10208e-07
4.71187e-06
4.94313e-06
-4.0616e-07
4.96726e-06
2.68133e-08
4.96198e-06
1.43352e-07
4.96312e-06
-2.02023e-07
4.94926e-06
-1.80735e-07
4.94366e-06
-6.92991e-08
4.95226e-06
2.53971e-08
4.9651e-06
2.03082e-07
4.97168e-06
9.94556e-08
4.98128e-06
4.38809e-08
4.97424e-06
-3.45996e-08
4.96575e-06
-1.21633e-07
4.96173e-06
-8.8882e-08
4.95118e-06
-6.24609e-08
4.94408e-06
-5.05029e-08
4.94141e-06
-1.07329e-08
4.93706e-06
2.60069e-08
4.93422e-06
5.4195e-08
4.93509e-06
8.20003e-08
1.06861e-07
4.93843e-06
5.18038e-06
-3.80222e-07
5.20428e-06
2.91693e-09
5.19986e-06
1.47766e-07
5.19957e-06
-2.01736e-07
5.18762e-06
-1.68781e-07
5.18063e-06
-6.23107e-08
5.18971e-06
1.63186e-08
5.20262e-06
1.90178e-07
5.20824e-06
9.38348e-08
5.21799e-06
3.41293e-08
5.21129e-06
-2.78992e-08
5.20165e-06
-1.11997e-07
5.19813e-06
-8.53615e-08
5.18834e-06
-5.26682e-08
5.18024e-06
-4.24058e-08
5.17773e-06
-8.22415e-09
5.17446e-06
2.92773e-08
5.1718e-06
5.68605e-08
5.17234e-06
8.1458e-08
1.03521e-07
5.17568e-06
5.42909e-06
-3.54125e-07
5.45256e-06
-2.05482e-08
5.44915e-06
1.51177e-07
5.44739e-06
-1.99985e-07
5.43737e-06
-1.58753e-07
5.42912e-06
-5.40681e-08
5.43836e-06
7.08383e-09
5.45157e-06
1.76968e-07
5.45601e-06
8.93945e-08
5.46579e-06
2.43431e-08
5.45974e-06
-2.1848e-08
5.44872e-06
-1.00973e-07
5.44548e-06
-8.21282e-08
5.43696e-06
-4.41461e-08
5.42809e-06
-3.35349e-08
5.42531e-06
-5.44286e-09
5.42308e-06
3.15097e-08
5.42086e-06
5.90828e-08
5.42113e-06
8.11824e-08
1.00406e-07
5.42425e-06
5.68982e-06
-3.27983e-07
5.71266e-06
-4.33912e-08
5.71034e-06
1.53497e-07
5.70716e-06
-1.96803e-07
5.69902e-06
-1.50614e-07
5.6897e-06
-4.47468e-08
5.69872e-06
-1.94331e-09
5.71248e-06
1.6321e-07
5.71556e-06
8.632e-08
5.72513e-06
1.47671e-08
5.72018e-06
-1.68904e-08
5.70773e-06
-8.85251e-08
5.70432e-06
-7.8716e-08
5.69746e-06
-3.72938e-08
5.68826e-06
-2.43276e-08
5.6848e-06
-1.99074e-09
5.68342e-06
3.28978e-08
5.68185e-06
6.06531e-08
5.68201e-06
8.10219e-08
9.76232e-08
5.68479e-06
5.96313e-06
-3.01919e-07
5.98517e-06
-6.54312e-08
5.98397e-06
1.54692e-07
5.97944e-06
-1.92267e-07
5.97312e-06
-1.44299e-07
5.96294e-06
-3.45631e-08
5.97136e-06
-1.03624e-08
5.98593e-06
1.4864e-07
5.98749e-06
8.47581e-08
5.99645e-06
5.80318e-09
5.99306e-06
-1.34997e-08
5.97955e-06
-7.50099e-08
5.9753e-06
-7.4467e-08
5.97024e-06
-3.22351e-08
5.96126e-06
-1.53426e-08
5.95696e-06
2.30979e-09
5.95606e-06
3.37913e-08
5.95524e-06
6.1474e-08
5.95549e-06
8.0774e-08
9.51753e-08
5.95794e-06
6.24963e-06
-2.76064e-07
6.2707e-06
-8.64929e-08
6.27062e-06
1.54773e-07
6.26479e-06
-1.86444e-07
6.26026e-06
-1.39771e-07
6.24947e-06
-2.37714e-08
6.25687e-06
-1.77592e-08
6.27246e-06
1.33049e-07
6.27255e-06
8.46678e-08
6.28018e-06
-1.83085e-09
6.27884e-06
-1.21594e-08
6.26486e-06
-6.10292e-08
6.25922e-06
-6.88263e-08
6.25571e-06
-2.87263e-08
6.24759e-06
-7.21693e-09
6.2425e-06
7.39858e-09
6.24168e-06
3.46077e-08
6.24158e-06
6.15761e-08
6.24211e-06
8.02425e-08
9.29707e-08
6.24432e-06
6.54997e-06
-2.50563e-07
6.56986e-06
-1.06382e-07
6.5709e-06
1.53731e-07
6.56375e-06
-1.79297e-07
6.56107e-06
-1.37091e-07
6.54998e-06
-1.26786e-08
6.55587e-06
-2.36491e-08
6.57262e-06
1.16296e-07
6.57151e-06
8.57814e-08
6.57687e-06
-7.19507e-09
6.57786e-06
-1.31517e-08
6.56437e-06
-4.75355e-08
6.55695e-06
-6.14015e-08
6.55445e-06
-2.62339e-08
6.5477e-06
-4.6889e-10
6.54211e-06
1.2996e-08
6.54101e-06
3.57013e-08
6.54148e-06
6.11141e-08
6.54241e-06
7.93049e-08
9.08452e-08
6.54454e-06
6.8648e-06
-2.25574e-07
6.88328e-06
-1.24857e-07
6.88558e-06
1.51425e-07
6.87692e-06
-1.70636e-07
6.87616e-06
-1.3633e-07
6.86512e-06
-1.63891e-09
6.86898e-06
-2.75033e-08
6.88692e-06
9.83559e-08
6.8852e-06
8.74995e-08
6.88751e-06
-9.50462e-09
6.89057e-06
-1.62112e-08
6.87858e-06
-3.55487e-08
6.86943e-06
-5.22568e-08
6.86716e-06
-2.39592e-08
6.86204e-06
4.65109e-09
6.85641e-06
1.86239e-08
6.85484e-06
3.7278e-08
6.85561e-06
6.03359e-08
6.85698e-06
7.7939e-08
8.8639e-08
6.85919e-06
7.19484e-06
-2.01274e-07
7.2116e-06
-1.41624e-07
7.21546e-06
1.47568e-07
7.20499e-06
-1.60171e-07
7.20619e-06
-1.37522e-07
7.19568e-06
8.86704e-09
7.19689e-06
-2.8715e-08
7.21587e-06
7.93819e-08
7.21442e-06
8.8949e-08
7.2133e-06
-8.38949e-09
7.21752e-06
-2.04305e-08
7.20796e-06
-2.59904e-08
7.19757e-06
-4.18587e-08
7.19471e-06
-2.11076e-08
7.19109e-06
8.27157e-09
7.18599e-06
2.37243e-08
7.18393e-06
3.93379e-08
7.18475e-06
5.95216e-08
7.18648e-06
7.62097e-08
8.62663e-08
7.18885e-06
7.5408e-06
-1.77853e-07
7.55552e-06
-1.56342e-07
7.56129e-06
1.41802e-07
7.54873e-06
-1.47612e-07
7.55177e-06
-1.40563e-07
7.54243e-06
1.82053e-08
7.54049e-06
-2.67667e-08
7.56005e-06
5.98208e-08
7.55991e-06
8.90823e-08
7.55535e-06
-3.82183e-09
7.55949e-06
-2.45792e-08
7.55293e-06
-1.9426e-08
7.54206e-06
-3.09849e-08
7.53809e-06
-1.71412e-08
7.53557e-06
1.07893e-08
7.53139e-06
2.79099e-08
7.52906e-06
4.16654e-08
7.52969e-06
5.88903e-08
7.53165e-06
7.42537e-08
8.37323e-08
7.53418e-06
7.90347e-06
-1.55514e-07
7.9158e-06
-1.68669e-07
7.92381e-06
1.33792e-07
7.90898e-06
-1.32782e-07
7.91347e-06
-1.45053e-07
7.90613e-06
2.55406e-08
7.9008e-06
-2.14338e-08
7.92007e-06
4.05531e-08
7.92218e-06
8.69648e-08
7.91471e-06
3.65253e-09
7.91744e-06
-2.73113e-08
7.91389e-06
-1.58738e-08
7.90352e-06
-2.06127e-08
7.8983e-06
-1.19229e-08
7.8963e-06
1.27902e-08
7.89317e-06
3.10391e-08
7.89092e-06
4.39179e-08
7.89128e-06
5.85263e-08
7.89331e-06
7.22272e-08
8.11011e-08
7.89594e-06
8.28363e-06
-1.34464e-07
8.29323e-06
-1.7827e-07
8.30375e-06
1.23277e-07
8.28662e-06
-1.15652e-07
8.29184e-06
-1.5028e-07
8.28747e-06
2.99157e-08
8.27886e-06
-1.28267e-08
8.29659e-06
2.2826e-08
8.30167e-06
8.18854e-08
8.29231e-06
1.30136e-08
8.29252e-06
-2.75239e-08
8.29142e-06
-1.47741e-08
8.28252e-06
-1.17074e-08
8.27624e-06
-5.65217e-09
8.27422e-06
1.48132e-08
8.27205e-06
3.32135e-08
8.27018e-06
4.57873e-08
8.27032e-06
5.83814e-08
8.2723e-06
7.02466e-08
7.84247e-08
8.27498e-06
8.68211e-06
-1.14907e-07
8.68871e-06
-1.84877e-07
8.70179e-06
1.102e-07
8.68265e-06
-9.65078e-08
8.68758e-06
-1.55211e-07
8.68707e-06
3.04201e-08
8.67572e-06
-1.47924e-09
8.69045e-06
8.10354e-09
8.69883e-06
7.35069e-08
8.68886e-06
2.29833e-08
8.68606e-06
-2.47313e-08
8.68636e-06
-1.50716e-08
8.67953e-06
-4.87513e-09
8.67277e-06
1.10149e-09
8.67032e-06
1.72673e-08
8.66886e-06
3.46713e-08
8.66756e-06
4.70888e-08
8.66762e-06
5.83187e-08
8.66948e-06
6.83911e-08
7.57083e-08
8.6722e-06
9.09974e-06
-9.7031e-08
9.10314e-06
-1.88275e-07
9.11864e-06
9.46975e-08
9.09821e-06
-7.60794e-08
9.10153e-06
-1.58527e-07
9.10541e-06
2.65372e-08
9.09248e-06
1.14554e-08
9.10282e-06
-2.23439e-09
9.11403e-06
6.2289e-08
9.105e-06
3.20163e-08
9.09934e-06
-1.90735e-08
9.09974e-06
-1.5463e-08
9.09519e-06
-3.28562e-10
9.08865e-06
7.64352e-09
9.08559e-06
2.03279e-08
9.08451e-06
3.57456e-08
9.08385e-06
4.77517e-08
9.08403e-06
5.81401e-08
9.08569e-06
6.67302e-08
7.29551e-08
9.08844e-06
9.53742e-06
-8.09863e-08
9.53752e-06
-1.88377e-07
9.55505e-06
7.71646e-08
9.53448e-06
-5.55096e-08
9.53475e-06
-1.58798e-07
9.54295e-06
1.83408e-08
9.53004e-06
2.43593e-08
9.53512e-06
-7.31545e-09
9.54803e-06
4.9382e-08
9.54129e-06
3.87627e-08
9.53335e-06
-1.11421e-08
9.53285e-06
-1.49564e-08
9.53028e-06
2.24322e-09
9.52455e-06
1.33676e-08
9.52102e-06
2.38581e-08
9.51999e-06
3.678e-08
9.51989e-06
4.78481e-08
9.5204e-06
5.76289e-08
9.52185e-06
6.52797e-08
7.02424e-08
9.52457e-06
9.99603e-06
-6.6884e-08
9.99286e-06
-1.85205e-07
1.00118e-05
5.81773e-08
9.99246e-06
-3.6119e-08
9.98848e-06
-1.54819e-07
1.00003e-05
6.54773e-09
9.98921e-06
3.54219e-08
9.98908e-06
-7.187e-09
1.00019e-05
3.6589e-08
9.99816e-06
4.24775e-08
9.98904e-06
-2.01807e-09
9.98706e-06
-1.29845e-08
9.98574e-06
3.56582e-09
9.98125e-06
1.78536e-08
9.97757e-06
2.75415e-08
9.97636e-06
3.79886e-08
9.9766e-06
4.76068e-08
9.9776e-06
5.66281e-08
9.97901e-06
6.38781e-08
6.77379e-08
9.98151e-06
1.04765e-05
-5.47885e-08
1.04702e-05
-1.78878e-07
1.049e-05
3.83699e-08
1.04729e-05
-1.9011e-08
1.04642e-05
-1.46143e-07
1.04781e-05
-7.33622e-09
1.04706e-05
4.29011e-08
1.04662e-05
-2.7616e-09
1.0477e-05
2.58244e-08
1.04763e-05
4.31793e-08
1.04672e-05
7.08321e-09
1.04636e-05
-9.40941e-09
1.04628e-05
4.38835e-09
1.04596e-05
2.09929e-08
1.04561e-05
3.1039e-08
1.04547e-05
3.93857e-08
1.0455e-05
4.7311e-08
1.04565e-05
5.51866e-08
1.04582e-05
6.22092e-08
6.55488e-08
1.04603e-05
1.09799e-05
-4.4704e-08
1.09707e-05
-1.69675e-07
1.09906e-05
1.84697e-08
1.09766e-05
-5.02317e-09
1.09637e-05
-1.33192e-07
1.09777e-05
-2.13016e-08
1.09747e-05
4.58188e-08
1.09677e-05
4.28178e-09
1.09752e-05
1.83326e-08
1.09767e-05
4.16831e-08
1.09685e-05
1.52556e-08
1.09636e-05
-4.50154e-09
1.09627e-05
5.29751e-09
1.09607e-05
2.29503e-08
1.09577e-05
3.40661e-08
1.09562e-05
4.08817e-08
1.09564e-05
4.70988e-08
1.0958e-05
5.35711e-08
1.09602e-05
6.00803e-08
6.34932e-08
1.09622e-05
1.15072e-05
-3.65619e-08
1.14956e-05
-1.5806e-07
1.15147e-05
-6.33661e-10
1.15045e-05
5.19607e-09
1.14883e-05
-1.17043e-07
1.15003e-05
-3.33017e-08
1.1502e-05
4.41721e-08
1.14943e-05
1.19291e-08
1.14982e-05
1.44547e-08
1.15006e-05
3.9294e-08
1.14938e-05
2.20304e-08
1.14881e-05
1.22848e-09
1.14868e-05
6.65014e-09
1.14857e-05
2.4042e-08
1.14833e-05
3.64173e-08
1.14818e-05
4.24063e-08
1.14819e-05
4.69377e-08
1.14835e-05
5.20401e-08
1.1486e-05
5.75966e-08
6.12181e-08
1.14882e-05
1.20595e-05
-3.02187e-08
1.2046e-05
-1.4461e-07
1.20634e-05
-1.8028e-08
1.20573e-05
1.12874e-08
1.20394e-05
-9.90886e-08
1.20478e-05
-4.17187e-08
1.20532e-05
3.87584e-08
1.20468e-05
1.83714e-08
1.20474e-05
1.37953e-08
1.20496e-05
3.70961e-08
1.20441e-05
2.75473e-08
1.20382e-05
7.18464e-09
1.20362e-05
8.59487e-09
1.20357e-05
2.45728e-08
1.20341e-05
3.80256e-08
1.20326e-05
4.38713e-08
1.20327e-05
4.68626e-08
1.20341e-05
5.0588e-08
1.20366e-05
5.5114e-08
5.84884e-08
1.20393e-05
1.26378e-05
-2.54569e-08
1.26232e-05
-1.30008e-07
1.26381e-05
-3.29179e-08
1.26361e-05
1.32983e-08
1.26177e-05
-8.07141e-08
1.26219e-05
-4.58369e-08
1.26295e-05
3.1099e-08
1.26254e-05
2.24925e-08
1.26241e-05
1.50777e-08
1.26253e-05
3.58677e-08
1.26206e-05
3.22402e-08
1.26147e-05
1.31045e-08
1.26123e-05
1.1032e-08
1.26121e-05
2.47998e-08
1.26112e-05
3.89042e-08
1.26099e-05
4.51116e-08
1.26098e-05
4.69919e-08
1.26113e-05
4.91357e-08
1.26136e-05
5.28059e-08
5.55008e-08
1.26166e-05
1.32435e-05
-2.19944e-08
1.32285e-05
-1.15086e-07
1.32402e-05
-4.45706e-08
1.32419e-05
1.16244e-08
1.32243e-05
-6.31763e-08
1.32244e-05
-4.59374e-08
1.32324e-05
2.31216e-08
1.3231e-05
2.39574e-08
1.32293e-05
1.67707e-08
1.32292e-05
3.58861e-08
1.32249e-05
3.65542e-08
1.3219e-05
1.90072e-08
1.32162e-05
1.38252e-08
1.32161e-05
2.49305e-08
1.32159e-05
3.91005e-08
1.3215e-05
4.59782e-08
1.32147e-05
4.73108e-08
1.3216e-05
4.7803e-08
1.32183e-05
5.05209e-08
5.26728e-08
1.32212e-05
1.38777e-05
-1.95075e-08
1.38632e-05
-1.00654e-07
1.38712e-05
-5.25016e-08
1.38757e-05
7.11668e-09
1.38602e-05
-4.76986e-08
1.38569e-05
-4.26347e-08
1.38638e-05
1.62678e-08
1.38644e-05
2.32906e-08
1.38634e-05
1.77743e-08
1.38628e-05
3.65068e-08
1.38584e-05
4.09434e-08
1.38525e-05
2.4955e-08
1.38493e-05
1.69772e-08
1.38492e-05
2.50813e-08
1.38496e-05
3.87107e-08
1.38492e-05
4.63725e-08
1.38488e-05
4.76337e-08
1.38498e-05
4.68003e-08
1.38523e-05
4.81033e-08
5.01298e-08
1.38548e-05
1.45418e-05
-1.76691e-08
1.45285e-05
-8.7362e-08
1.45326e-05
-5.66048e-08
1.45388e-05
9.48452e-10
1.45263e-05
-3.52286e-08
1.45206e-05
-3.68639e-08
1.45255e-05
1.13307e-08
1.45272e-05
2.15937e-08
1.45274e-05
1.75843e-08
1.45272e-05
3.67025e-08
1.45227e-05
4.5483e-08
1.45165e-05
3.10914e-08
1.45129e-05
2.05913e-08
1.45126e-05
2.53376e-08
1.45135e-05
3.78483e-08
1.45137e-05
4.62157e-08
1.45135e-05
4.78049e-08
1.45141e-05
4.62073e-08
1.45165e-05
4.57143e-08
4.75775e-08
1.4519e-05
1.52374e-05
-1.61859e-08
1.52257e-05
-7.56413e-08
1.52263e-05
-5.72228e-08
1.52328e-05
-5.57679e-09
1.52238e-05
-2.61786e-08
1.52167e-05
-2.97767e-08
1.52194e-05
8.64105e-09
1.5221e-05
1.99893e-08
1.52222e-05
1.63223e-08
1.52233e-05
3.56914e-08
1.52192e-05
4.95201e-08
1.52127e-05
3.7604e-08
1.52086e-05
2.47339e-08
1.5208e-05
2.58646e-08
1.52092e-05
3.66684e-08
1.521e-05
4.54329e-08
1.52101e-05
4.76726e-08
1.52104e-05
4.59053e-08
1.52124e-05
4.37535e-08
4.47689e-08
1.52152e-05
1.5966e-05
-1.48478e-08
1.5956e-05
-6.56253e-08
1.59539e-05
-5.51465e-08
1.59595e-05
-1.11748e-08
1.59537e-05
-2.03673e-08
1.59465e-05
-2.26369e-08
1.5947e-05
8.18474e-09
1.59478e-05
1.91592e-08
1.59493e-05
1.48409e-08
1.59518e-05
3.31579e-08
1.59493e-05
5.20966e-08
1.59426e-05
4.42824e-08
1.59378e-05
2.948e-08
1.59369e-05
2.68472e-08
1.59382e-05
3.53171e-08
1.59396e-05
4.4086e-08
1.59402e-05
4.7002e-08
1.59405e-05
4.5681e-08
1.59418e-05
4.24299e-08
4.18995e-08
1.59447e-05
1.67293e-05
-1.35348e-08
1.67208e-05
-5.71844e-08
1.6717e-05
-5.13264e-08
1.67208e-05
-1.49113e-08
1.67175e-05
-1.71372e-08
1.67113e-05
-1.63736e-08
1.671e-05
9.452e-09
1.67098e-05
1.93853e-08
1.67105e-05
1.41625e-08
1.67143e-05
2.93249e-08
1.67139e-05
5.2526e-08
1.67078e-05
5.03567e-08
1.67024e-05
3.48609e-08
1.67008e-05
2.84817e-08
1.67022e-05
3.39253e-08
1.67039e-05
4.23564e-08
1.67051e-05
4.57513e-08
1.67057e-05
4.51072e-08
1.67065e-05
4.16932e-08
3.94261e-08
1.67089e-05
1.7529e-05
-1.21917e-08
1.75219e-05
-5.00931e-08
1.75171e-05
-4.65235e-08
1.75188e-05
-1.65935e-08
1.75169e-05
-1.52402e-08
1.75121e-05
-1.15981e-08
1.75101e-05
1.15247e-08
1.75086e-05
2.08228e-08
1.75079e-05
1.48392e-08
1.7512e-05
2.52457e-08
1.75141e-05
5.04988e-08
1.75096e-05
5.48101e-08
1.75039e-05
4.06014e-08
1.75014e-05
3.09077e-08
1.75026e-05
3.27575e-08
1.75047e-05
4.02957e-08
1.75063e-05
4.4116e-08
1.75074e-05
4.39674e-08
1.7508e-05
4.11319e-08
3.76659e-08
1.75098e-05
1.8367e-05
-1.08221e-08
1.83609e-05
-4.40383e-08
1.83557e-05
-4.13265e-08
1.83555e-05
-1.637e-08
1.83539e-05
-1.36638e-08
1.83506e-05
-8.29841e-09
1.83485e-05
1.36454e-08
1.83462e-05
2.31407e-08
1.83442e-05
1.68028e-08
1.83472e-05
2.2249e-08
1.83514e-05
4.63409e-08
1.83493e-05
5.68901e-08
1.83438e-05
4.61005e-08
1.83407e-05
3.40461e-08
1.83411e-05
3.22957e-08
1.83435e-05
3.7905e-08
1.83454e-05
4.2278e-08
1.83469e-05
4.24112e-08
1.83478e-05
4.02404e-08
3.65075e-08
1.8349e-05
1.9245e-05