/*--------------------------------*- C++ -*----------------------------------*\
| =========                 |                                                 |
| \\      /  F ield         | OpenFOAM: The Open Source CFD Toolbox           |
|  \\    /   O peration     | Version:  3.0.1                                 |
|   \\  /    A nd           | Web:      www.OpenFOAM.org                      |
|    \\/     M anipulation  |                                                 |
\*---------------------------------------------------------------------------*/
FoamFile
{
    version     2.0;
    format      ascii;
    class       volVectorField;
    location    "0.7";
    object      U;
}
// * * * * * * * * * * * * * * * * * * * * * * * * * * * * * * * * * * * * * //

dimensions      [0 1 -1 0 0 0 0];

internalField   nonuniform List<vector> 
9600
(
(0.867992 -0.0078096 0)
(1.14076 0.00491752 0)
(0.842005 0.000700787 0)
(1.14201 -0.00143886 0)
(0.864279 -0.00520484 0)
(1.19772 0.00249395 0)
(0.900949 0.000419905 0)
(1.16265 0.0110577 0)
(0.909964 0.000767805 0)
(1.14218 0.00509206 0)
(0.896995 -0.00916025 0)
(1.14709 -0.00496226 0)
(0.894765 -0.00765639 0)
(1.15474 -0.0030929 0)
(0.898414 -0.00329092 0)
(1.16362 -0.0027587 0)
(0.907245 -0.00302281 0)
(1.16846 -0.000679826 0)
(0.90369 0.000354836 0)
(1.16478 0.00193192 0)
(0.878447 -0.0079465 0)
(1.13391 0.0051765 0)
(0.860708 0.000502874 0)
(1.13072 -0.00141453 0)
(0.883021 -0.00598983 0)
(1.18466 0.00224763 0)
(0.922258 0.000573641 0)
(1.14738 0.0111138 0)
(0.940688 0.000862848 0)
(1.11968 0.00546239 0)
(0.938079 -0.00935252 0)
(1.11433 -0.00476071 0)
(0.94112 -0.00795597 0)
(1.11271 -0.00299834 0)
(0.956817 -0.00361019 0)
(1.10593 -0.00294449 0)
(0.982995 -0.00310773 0)
(1.08782 -0.000843258 0)
(1.00807 0.001627 0)
(1.04738 0.0015534 0)
(0.895522 -0.00808708 0)
(1.11871 0.00541509 0)
(0.892773 0.000415066 0)
(1.10883 -0.00146088 0)
(0.914244 -0.00667014 0)
(1.1574 0.00204656 0)
(0.958477 0.000842601 0)
(1.12056 0.0110795 0)
(0.981186 0.00114108 0)
(1.08784 0.00560422 0)
(0.979477 -0.00925922 0)
(1.07019 -0.00476677 0)
(0.985412 -0.00794653 0)
(1.06457 -0.00330426 0)
(1.00466 -0.00349464 0)
(1.05829 -0.00355578 0)
(1.02549 -0.00259814 0)
(1.04845 -0.00160792 0)
(1.03665 0.00228689 0)
(1.03331 0.0022085 0)
(0.916479 -0.00820902 0)
(1.09656 0.00547255 0)
(0.92913 0.000410829 0)
(1.07998 -0.0015301 0)
(0.947513 -0.00718207 0)
(1.12127 0.00172977 0)
(0.994657 0.00112463 0)
(1.09284 0.01092 0)
(1.01298 0.00151894 0)
(1.06027 0.00565393 0)
(1.00355 -0.00888961 0)
(1.03552 -0.00488565 0)
(1.00551 -0.00784001 0)
(1.03339 -0.00371339 0)
(1.02086 -0.00341878 0)
(1.03587 -0.00398808 0)
(1.0323 -0.00242235 0)
(1.03692 -0.00186458 0)
(1.03573 0.00262503 0)
(1.03344 0.00301946 0)
(0.938214 -0.0083026 0)
(1.07132 0.00536653 0)
(0.961216 0.000505884 0)
(1.05095 -0.00160083 0)
(0.973625 -0.00759518 0)
(1.0847 0.00128363 0)
(1.01916 0.00131782 0)
(1.07124 0.0107534 0)
(1.02959 0.00193926 0)
(1.04209 0.0058 0)
(1.01173 -0.00838945 0)
(1.01572 -0.00496672 0)
(1.00833 -0.00777179 0)
(1.01747 -0.00408079 0)
(1.02019 -0.00347023 0)
(1.02502 -0.00429471 0)
(1.02749 -0.00239229 0)
(1.02946 -0.00206907 0)
(1.03045 0.00283711 0)
(1.02902 0.00360258 0)
(0.957823 -0.00835705 0)
(1.04747 0.00516425 0)
(0.983919 0.000659542 0)
(1.02788 -0.00165344 0)
(0.989101 -0.00792157 0)
(1.0541 0.000808465 0)
(1.02894 0.00136852 0)
(1.05581 0.0106497 0)
(1.03351 0.00236251 0)
(1.03101 0.00603486 0)
(1.01206 -0.00784096 0)
(1.00631 -0.00499108 0)
(1.00547 -0.00771362 0)
(1.00912 -0.00442793 0)
(1.01515 -0.00356532 0)
(1.01747 -0.00455748 0)
(1.02069 -0.00241723 0)
(1.02186 -0.00224339 0)
(1.02385 0.00289881 0)
(1.02309 0.00408282 0)
(0.973483 -0.00837037 0)
(1.0281 0.00492571 0)
(0.99652 0.000822103 0)
(1.01327 -0.00166832 0)
(0.995759 -0.00815386 0)
(1.03171 0.000374665 0)
(1.02743 0.00128722 0)
(1.0433 0.0105858 0)
(1.02988 0.00275731 0)
(1.0234 0.00628128 0)
(1.0102 -0.00729281 0)
(1.00229 -0.00499078 0)
(1.00257 -0.00763352 0)
(1.00421 -0.00475703 0)
(1.01006 -0.00364363 0)
(1.01131 -0.00478928 0)
(1.01395 -0.00244711 0)
(1.01461 -0.00235932 0)
(1.01656 0.00281179 0)
(1.01667 0.00451343 0)
(0.984731 -0.00834903 0)
(1.01415 0.00469991 0)
(1.0014 0.000955694 0)
(1.00601 -0.00164887 0)
(0.997477 -0.00828859 0)
(1.0166 1.37517e-05 0)
(1.02006 0.00113369 0)
(1.03147 0.0105176 0)
(1.02297 0.00309873 0)
(1.0173 0.0064637 0)
(1.00836 -0.0067851 0)
(1.00081 -0.004995 0)
(1.00083 -0.0075153 0)
(1.00121 -0.00504406 0)
(1.00583 -0.00368774 0)
(1.00635 -0.0049692 0)
(1.00794 -0.00246179 0)
(1.00811 -0.00239295 0)
(1.00947 0.00264706 0)
(1.01005 0.00491043 0)
(0.992108 -0.0083007 0)
(1.00496 0.00451522 0)
(1.00188 0.0010408 0)
(1.00337 -0.00161707 0)
(0.997431 -0.00832998 0)
(1.0068 -0.00026086 0)
(1.01127 0.000976235 0)
(1.02024 0.0104206 0)
(1.01558 0.00336239 0)
(1.01228 0.00653709 0)
(1.00704 -0.00634145 0)
(1.0005 -0.00501379 0)
(0.99999 -0.00735316 0)
(0.999464 -0.00527919 0)
(1.00261 -0.00369261 0)
(1.0026 -0.00507903 0)
(1.00303 -0.00245796 0)
(1.00268 -0.0023282 0)
(1.00323 0.00246255 0)
(1.00379 0.00528603 0)
(0.996576 -0.00823062 0)
(0.999259 0.00437481 0)
(1.00068 0.00107559 0)
(1.00283 -0.00159394 0)
(0.997175 -0.00828868 0)
(1.00062 -0.000445338 0)
(1.00365 0.000858947 0)
(1.01065 0.0102869 0)
(1.00933 0.003537 0)
(1.00845 0.00649374 0)
(1.0062 -0.00596288 0)
(1.00067 -0.00504539 0)
(0.99963 -0.00715395 0)
(0.998512 -0.00546184 0)
(1.00028 -0.00365943 0)
(0.999944 -0.00511173 0)
(0.999335 -0.00244543 0)
(0.99848 -0.00216457 0)
(0.998217 0.00229292 0)
(0.998414 0.00564015 0)
(0.999085 -0.00814241 0)
(0.995908 0.00426647 0)
(0.99933 0.00107088 0)
(1.00289 -0.00158841 0)
(0.997071 -0.00818106 0)
(0.996848 -0.000552484 0)
(0.99818 0.000795165 0)
(1.00356 0.0101158 0)
(1.00492 0.00363368 0)
(1.00587 0.006348 0)
(1.00572 -0.00563506 0)
(1.00097 -0.00508762 0)
(0.999463 -0.00692546 0)
(0.998012 -0.00559619 0)
(0.99866 -0.00359959 0)
(0.998155 -0.00507165 0)
(0.996756 -0.00242296 0)
(0.995457 -0.00190836 0)
(0.99455 0.00216424 0)
(0.994272 0.00596303 0)
(1.00038 -0.00803905 0)
(0.994082 0.00417466 0)
(0.99841 0.00104171 0)
(1.00294 -0.00159941 0)
(0.997015 -0.00802522 0)
(0.994648 -0.000607526 0)
(0.994826 0.00077717 0)
(0.999088 0.00991173 0)
(1.00233 0.00367143 0)
(1.00441 0.00612632 0)
(1.0055 -0.00533922 0)
(1.00125 -0.00513448 0)
(0.999351 -0.00667534 0)
(0.997723 -0.00568735 0)
(0.997559 -0.00352961 0)
(0.996959 -0.00496612 0)
(0.995064 -0.00238868 0)
(0.993426 -0.00158075 0)
(0.992121 0.00209372 0)
(0.991428 0.00624034 0)
(1.00098 -0.00792325 0)
(0.993216 0.00408652 0)
(0.99795 0.00100206 0)
(1.00284 -0.00162152 0)
(0.996884 -0.00783607 0)
(0.993424 -0.000633108 0)
(0.993074 0.000789489 0)
(0.99675 0.00967839 0)
(1.00114 0.00367172 0)
(1.00377 0.00585609 0)
(1.00545 -0.00505795 0)
(1.00148 -0.00517788 0)
(0.999253 -0.00641246 0)
(0.997518 -0.00573675 0)
(0.996802 -0.00346284 0)
(0.996138 -0.00480664 0)
(0.994005 -0.00234933 0)
(0.992154 -0.00121383 0)
(0.990687 0.00208924 0)
(0.989737 0.00645648 0)
(1.00122 -0.0077973 0)
(0.992917 0.00399359 0)
(0.997792 0.00096225 0)
(1.00265 -0.00164934 0)
(0.996663 -0.00762358 0)
(0.992769 -0.000648469 0)
(0.992334 0.000817265 0)
(0.99582 0.00941826 0)
(1.00084 0.00365173 0)
(1.00363 0.00555788 0)
(1.00549 -0.00477826 0)
(1.00166 -0.00521061 0)
(0.999167 -0.00614427 0)
(0.997355 -0.00574433 0)
(0.996274 -0.00340865 0)
(0.995558 -0.00460326 0)
(0.993366 -0.00231117 0)
(0.99142 -0.000825383 0)
(0.98997 0.00215636 0)
(0.988933 0.00660356 0)
(1.00129 -0.00766282 0)
(0.992917 0.00389131 0)
(0.997779 0.000928582 0)
(1.00244 -0.00167962 0)
(0.996409 -0.00739361 0)
(0.992436 -0.000665094 0)
(0.992143 0.000849809 0)
(0.995651 0.00913376 0)
(1.00096 0.00362324 0)
(1.00371 0.0052454 0)
(1.00553 -0.00449634 0)
(1.0018 -0.00522631 0)
(0.999102 -0.0058765 0)
(0.997231 -0.00571337 0)
(0.995909 -0.00336437 0)
(0.995144 -0.00436538 0)
(0.993002 -0.00226745 0)
(0.991046 -0.000451826 0)
(0.989716 0.0022815 0)
(0.988726 0.00668172 0)
(1.00128 -0.00752069 0)
(0.993047 0.00377752 0)
(0.997807 0.000904265 0)
(1.00226 -0.00171162 0)
(0.996185 -0.00714904 0)
(0.992288 -0.000689408 0)
(0.992208 0.000882085 0)
(0.9958 0.00882656 0)
(1.0012 0.0035931 0)
(1.00383 0.00492722 0)
(1.00554 -0.00421091 0)
(1.0019 -0.00522291 0)
(0.999059 -0.00561346 0)
(0.997156 -0.00564622 0)
(0.995671 -0.00332824 0)
(0.994858 -0.00410385 0)
(0.99282 -0.0022076 0)
(0.990904 -0.000123337 0)
(0.989737 0.00244565 0)
(0.988872 0.00670255 0)
(1.00125 -0.00737118 0)
(0.993219 0.00365134 0)
(0.997827 0.000890482 0)
(1.0021 -0.00174619 0)
(0.996028 -0.00689121 0)
(0.992255 -0.00072436 0)
(0.992377 0.000913366 0)
(0.996024 0.0084988 0)
(1.00142 0.00356271 0)
(1.0039 0.00460803 0)
(1.00548 -0.00392656 0)
(1.00196 -0.0051951 0)
(0.999038 -0.00536359 0)
(0.997131 -0.00554022 0)
(0.995538 -0.00330237 0)
(0.994679 -0.00383288 0)
(0.992767 -0.00212354 0)
(0.990912 0.000167805 0)
(0.989911 0.00263529 0)
(0.989202 0.00668135 0)
(1.00122 -0.00721419 0)
(0.993393 0.00351244 0)
(0.997826 0.000887602 0)
(1.00198 -0.00178509 0)
(0.995945 -0.00662094 0)
(0.992301 -0.000768921 0)
(0.992581 0.000943378 0)
(0.996224 0.00815672 0)
(1.00155 0.00352843 0)
(1.00388 0.00429166 0)
(1.00536 -0.00365017 0)
(1.002 -0.00514173 0)
(0.999031 -0.00512718 0)
(0.997146 -0.00540289 0)
(0.995489 -0.00327817 0)
(0.994588 -0.00356257 0)
(0.99281 -0.00200671 0)
(0.991024 0.000426941 0)
(0.99017 0.00283019 0)
(0.989617 0.0066271 0)
(1.00119 -0.00704948 0)
(0.993556 0.00336076 0)
(0.997803 0.00089546 0)
(1.00187 -0.00182937 0)
(0.995923 -0.00633983 0)
(0.992402 -0.000821258 0)
(0.992797 0.00097231 0)
(0.996375 0.00780331 0)
(1.00159 0.00349296 0)
(1.0038 0.00398511 0)
(1.00517 -0.00338616 0)
(1.002 -0.00506749 0)
(0.999032 -0.00489992 0)
(0.997189 -0.00524587 0)
(0.995505 -0.00324365 0)
(0.994566 -0.00329793 0)
(0.992927 -0.00186084 0)
(0.991211 0.000658674 0)
(0.990475 0.00301594 0)
(0.99007 0.00654736 0)
(1.00116 -0.00687689 0)
(0.99371 0.00319652 0)
(0.997765 0.000913797 0)
(1.00177 -0.0018796 0)
(0.995945 -0.00604855 0)
(0.992542 -0.000879986 0)
(0.993018 0.00100178 0)
(0.996487 0.00744158 0)
(1.00158 0.00345357 0)
(1.00365 0.00369066 0)
(1.00495 -0.00313779 0)
(1.00199 -0.00497229 0)
(0.999037 -0.00468691 0)
(0.997249 -0.00507166 0)
(0.995565 -0.00319297 0)
(0.994597 -0.0030406 0)
(0.993096 -0.00170032 0)
(0.991452 0.000870763 0)
(0.99081 0.00319175 0)
(0.990539 0.00645227 0)
(1.00114 -0.00669607 0)
(0.993858 0.00301935 0)
(0.997717 0.000942951 0)
(1.00168 -0.00193649 0)
(0.995993 -0.00574849 0)
(0.992706 -0.000942702 0)
(0.993244 0.00102975 0)
(0.996573 0.00707813 0)
(1.00152 0.00339999 0)
(1.00348 0.00340872 0)
(1.0047 -0.00290663 0)
(1.00195 -0.00485718 0)
(0.999045 -0.00448526 0)
(0.997317 -0.0048874 0)
(0.995656 -0.00312613 0)
(0.994664 -0.00277962 0)
(0.993303 -0.00153131 0)
(0.991736 0.00107106 0)
(0.991163 0.00336615 0)
(0.991013 0.00635706 0)
(1.00111 -0.00650709 0)
(0.994005 0.00282987 0)
(0.997664 0.000981783 0)
(1.00159 -0.00199972 0)
(0.996057 -0.00544135 0)
(0.992886 -0.00100734 0)
(0.993474 0.0010534 0)
(0.996648 0.00671614 0)
(1.00144 0.00333489 0)
(1.00328 0.00314482 0)
(1.00443 -0.00269555 0)
(1.00191 -0.0047284 0)
(0.999055 -0.00428533 0)
(0.997387 -0.00469591 0)
(0.995768 -0.00305015 0)
(0.994755 -0.00251396 0)
(0.993533 -0.001352 0)
(0.992051 0.00125413 0)
(0.991527 0.00353927 0)
(0.991484 0.00627105 0)
(1.00109 -0.00630991 0)
(0.994153 0.00262852 0)
(0.997607 0.00103017 0)
(1.0015 -0.00206905 0)
(0.996129 -0.00512958 0)
(0.993075 -0.00107225 0)
(0.993708 0.00107145 0)
(0.996719 0.00636081 0)
(1.00135 0.00325467 0)
(1.00308 0.00290146 0)
(1.00416 -0.00249884 0)
(1.00186 -0.00459155 0)
(0.999068 -0.00408361 0)
(0.997457 -0.00450177 0)
(0.995895 -0.00296806 0)
(0.994865 -0.00225198 0)
(0.993778 -0.00116304 0)
(0.992389 0.00140612 0)
(0.991897 0.00370552 0)
(0.991943 0.00619893 0)
(1.00107 -0.0061045 0)
(0.994305 0.00241515 0)
(0.997549 0.00108803 0)
(1.00142 -0.00214282 0)
(0.996208 -0.00481651 0)
(0.993269 -0.00113354 0)
(0.993945 0.0010801 0)
(0.996789 0.00601668 0)
(1.00125 0.00315545 0)
(1.00288 0.00267287 0)
(1.00388 -0.00230956 0)
(1.00181 -0.00445257 0)
(0.999083 -0.00387947 0)
(0.997525 -0.00430382 0)
(0.996034 -0.0028794 0)
(0.99499 -0.00198899 0)
(0.99403 -0.000963585 0)
(0.992746 0.0015235 0)
(0.992272 0.00385716 0)
(0.992386 0.00614597 0)
(1.00104 -0.00589109 0)
(0.994463 0.00219074 0)
(0.99749 0.00115351 0)
(1.00134 -0.00221885 0)
(0.996291 -0.00450418 0)
(0.993466 -0.00118796 0)
(0.994185 0.00107581 0)
(0.99686 0.00568594 0)
(1.00116 0.00304121 0)
(1.00268 0.00245328 0)
(1.00361 -0.00212905 0)
(1.00175 -0.00431623 0)
(0.999103 -0.00367148 0)
(0.99759 -0.00409298 0)
(0.996183 -0.00278522 0)
(0.995129 -0.00172385 0)
(0.994282 -0.000743739 0)
(0.993116 0.00161001 0)
(0.992654 0.00397912 0)
(0.992809 0.00611308 0)
(1.00102 -0.00566984 0)
(0.994626 0.00195624 0)
(0.99743 0.00122497 0)
(1.00126 -0.00229571 0)
(0.996379 -0.00419631 0)
(0.993664 -0.00123185 0)
(0.994427 0.00105405 0)
(0.996932 0.00537131 0)
(1.00106 0.00291215 0)
(1.00249 0.00224896 0)
(1.00334 -0.00195126 0)
(1.0017 -0.00418223 0)
(0.999127 -0.00346279 0)
(0.997652 -0.00386372 0)
(0.996343 -0.00268685 0)
(0.995282 -0.00146328 0)
(0.994533 -0.000502748 0)
(0.993494 0.00167027 0)
(0.993045 0.00405461 0)
(0.993214 0.00609391 0)
(1.00099 -0.00544146 0)
(0.994797 0.00171298 0)
(0.997372 0.00130166 0)
(1.00118 -0.0023704 0)
(0.996471 -0.00389629 0)
(0.993862 -0.00126266 0)
(0.994672 0.00101227 0)
(0.997005 0.00507525 0)
(1.00095 0.00277011 0)
(1.0023 0.00205267 0)
(1.00307 -0.00177077 0)
(1.00164 -0.00404907 0)
(0.999158 -0.00326288 0)
(0.997711 -0.00360819 0)
(0.996511 -0.00258778 0)
(0.995453 -0.00121949 0)
(0.994778 -0.000250833 0)
(0.993874 0.00171995 0)
(0.993449 0.00407727 0)
(0.993605 0.006076 0)
(1.00096 -0.00520589 0)
(0.994975 0.00146155 0)
(0.997315 0.00138183 0)
(1.0011 -0.00243952 0)
(0.996567 -0.00360822 0)
(0.99406 -0.00127571 0)
(0.99492 0.000949051 0)
(0.99708 0.00479714 0)
(1.00085 0.00261904 0)
(1.00211 0.00185384 0)
(1.0028 -0.00158936 0)
(1.00158 -0.00391264 0)
(0.999197 -0.00308073 0)
(0.997766 -0.00332334 0)
(0.996684 -0.00248236 0)
(0.995642 -0.00100121 0)
(0.99502 1.22766e-05 0)
(0.99425 0.00177972 0)
(0.993864 0.00404906 0)
(0.993992 0.00603957 0)
(1.00093 -0.00496402 0)
(0.995159 0.00120415 0)
(0.99726 0.00146208 0)
(1.00103 -0.00250173 0)
(0.996667 -0.00333401 0)
(0.994256 -0.00126791 0)
(0.99517 0.000864091 0)
(0.997157 0.00453425 0)
(1.00074 0.00246408 0)
(1.00193 0.00165732 0)
(1.00253 -0.00140932 0)
(1.00151 -0.00376777 0)
(0.999247 -0.00291442 0)
(0.997819 -0.00301674 0)
(0.99686 -0.0023562 0)
(0.995851 -0.000813354 0)
(0.99526 0.000288326 0)
(0.994614 0.00186545 0)
(0.994287 0.00398169 0)
(0.994382 0.00596318 0)
(1.0009 -0.00471638 0)
(0.995351 0.000942378 0)
(0.997209 0.00154031 0)
(1.00096 -0.00255372 0)
(0.996772 -0.00307931 0)
(0.994448 -0.00123835 0)
(0.995422 0.000758235 0)
(0.997236 0.00428556 0)
(1.00063 0.00230961 0)
(1.00176 0.00145892 0)
(1.00227 -0.0012292 0)
(1.00144 -0.0036106 0)
(0.999308 -0.00276564 0)
(0.997871 -0.00269246 0)
(0.997033 -0.00220256 0)
(0.996081 -0.00065776 0)
(0.995505 0.000555451 0)
(0.994961 0.00198229 0)
(0.99471 0.00389909 0)
(0.994781 0.00583763 0)
(1.00087 -0.00446384 0)
(0.995549 0.000678477 0)
(0.997162 0.00161308 0)
(1.00088 -0.00259135 0)
(0.996882 -0.00284858 0)
(0.994636 -0.00118585 0)
(0.995675 0.000633591 0)
(0.997318 0.00404926 0)
(1.00052 0.00215933 0)
(1.0016 0.00125718 0)
(1.00201 -0.00104979 0)
(1.00137 -0.00343648 0)
(0.999381 -0.00263582 0)
(0.997926 -0.00235602 0)
(0.997198 -0.0020165 0)
(0.996328 -0.000534835 0)
(0.995759 0.000786163 0)
(0.99529 0.00212386 0)
(0.995123 0.00382859 0)
(0.995191 0.00566922 0)
(1.00084 -0.00420747 0)
(0.995753 0.000415153 0)
(0.997119 0.00167783 0)
(1.00081 -0.00261356 0)
(0.996998 -0.00263948 0)
(0.994817 -0.00111131 0)
(0.995927 0.000493283 0)
(0.997404 0.00381736 0)
(1.00041 0.00202279 0)
(1.00145 0.00105386 0)
(1.00177 -0.000874688 0)
(1.00128 -0.00323839 0)
(0.999468 -0.00252403 0)
(0.997987 -0.0020256 0)
(0.997352 -0.00179154 0)
(0.996586 -0.000434291 0)
(0.996027 0.000973299 0)
(0.995606 0.00227362 0)
(0.995517 0.00378835 0)
(0.995606 0.00547706 0)
(1.00081 -0.00394757 0)
(0.995963 0.000152895 0)
(0.997081 0.00173527 0)
(1.00074 -0.0026191 0)
(0.997122 -0.00245439 0)
(0.994991 -0.00101396 0)
(0.996177 0.000342143 0)
(0.997495 0.00358584 0)
(1.00029 0.00190071 0)
(1.0013 0.000840908 0)
(1.00153 -0.000705263 0)
(1.00119 -0.00300886 0)
(0.999565 -0.00243253 0)
(0.998058 -0.00171252 0)
(0.997491 -0.00153116 0)
(0.996848 -0.000345294 0)
(0.996311 0.00111361 0)
(0.995914 0.00241033 0)
(0.995888 0.00378149 0)
(0.996013 0.00528927 0)
(1.00077 -0.0036861 0)
(0.996178 -0.000103798 0)
(0.997049 0.00178087 0)
(1.00067 -0.00260542 0)
(0.997253 -0.00229899 0)
(0.995158 -0.000894997 0)
(0.996422 0.000187051 0)
(0.997592 0.00335088 0)
(1.00016 0.0017996 0)
(1.00117 0.000623805 0)
(1.00131 -0.000551734 0)
(1.00108 -0.00273515 0)
(0.999671 -0.00235121 0)
(0.998146 -0.00143782 0)
(0.997616 -0.00124282 0)
(0.997106 -0.000253604 0)
(0.996611 0.00120268 0)
(0.996222 0.00251746 0)
(0.996237 0.00379188 0)
(0.996402 0.00512807 0)
(1.00074 -0.00342352 0)
(0.996398 -0.00035556 0)
(0.997022 0.00181512 0)
(1.0006 -0.00257451 0)
(0.997392 -0.00217101 0)
(0.995318 -0.000759301 0)
(0.99666 3.32721e-05 0)
(0.997696 0.0031067 0)
(1.00003 0.00172705 0)
(1.00104 0.000415024 0)
(1.00111 -0.000423066 0)
(1.00096 -0.00241947 0)
(0.999777 -0.00226618 0)
(0.998254 -0.00121431 0)
(0.997729 -0.000935431 0)
(0.997351 -0.000142433 0)
(0.996922 0.0012512 0)
(0.996536 0.0025902 0)
(0.99657 0.00379828 0)
(0.996767 0.00499524 0)
(1.0007 -0.00316117 0)
(0.996622 -0.000600651 0)
(0.997003 0.00183612 0)
(1.00053 -0.00252509 0)
(0.99754 -0.00206799 0)
(0.99547 -0.00060825 0)
(0.996889 -0.000114388 0)
(0.997807 0.00284994 0)
(0.999896 0.00168513 0)
(1.00092 0.000210865 0)
(1.00093 -0.000326875 0)
(1.00083 -0.00206979 0)
(0.999877 -0.00216404 0)
(0.998385 -0.00104225 0)
(0.997838 -0.00063146 0)
(0.997577 -7.45807e-06 0)
(0.997239 0.00127817 0)
(0.996859 0.00262952 0)
(0.996892 0.00379289 0)
(0.997109 0.004881 0)
(1.00066 -0.00290034 0)
(0.996851 -0.000835111 0)
(0.996992 0.00184202 0)
(1.00045 -0.00245875 0)
(0.997695 -0.00199364 0)
(0.995616 -0.000445524 0)
(0.997106 -0.0002472 0)
(0.99793 0.00257464 0)
(0.999755 0.00167714 0)
(1.0008 2.00163e-05 0)
(1.00079 -0.000281683 0)
(1.00069 -0.00170211 0)
(0.999962 -0.00202131 0)
(0.998537 -0.000922852 0)
(0.997949 -0.0003528 0)
(0.997781 0.00016975 0)
(0.997554 0.00130553 0)
(0.99719 0.00263763 0)
(0.997208 0.00377308 0)
(0.997429 0.00477719 0)
(1.00062 -0.00264189 0)
(0.997082 -0.00105991 0)
(0.996991 0.00183835 0)
(1.00037 -0.0023802 0)
(0.99786 -0.00194306 0)
(0.995756 -0.000276181 0)
(0.997307 -0.000358618 0)
(0.998066 0.00227525 0)
(0.999611 0.00169567 0)
(1.00068 -0.000130875 0)
(1.00067 -0.000295802 0)
(1.00056 -0.00134266 0)
(1.00003 -0.0018254 0)
(0.998704 -0.000843077 0)
(0.998073 -0.000108429 0)
(0.997966 0.000381898 0)
(0.997857 0.00134571 0)
(0.997527 0.00261882 0)
(0.997523 0.00373461 0)
(0.997731 0.0046769 0)
(1.00058 -0.00238758 0)
(0.997316 -0.00127105 0)
(0.997001 0.00182003 0)
(1.00028 -0.00227977 0)
(0.998034 -0.00191913 0)
(0.995891 -0.000102344 0)
(0.99749 -0.000440722 0)
(0.998215 0.00195221 0)
(0.99947 0.0017307 0)
(1.00054 -0.000216437 0)
(1.00059 -0.000358344 0)
(1.00044 -0.00101444 0)
(1.00006 -0.00157895 0)
(0.998879 -0.000778826 0)
(0.998218 8.73908e-05 0)
(0.998136 0.000598804 0)
(0.998139 0.00140563 0)
(0.997864 0.00257843 0)
(0.99784 0.00367286 0)
(0.99802 0.00457152 0)
(1.00054 -0.00213969 0)
(0.997551 -0.00146525 0)
(0.997023 0.00178601 0)
(1.00019 -0.0021561 0)
(0.998216 -0.0019246 0)
(0.996025 7.08193e-05 0)
(0.997649 -0.000483685 0)
(0.998379 0.00160699 0)
(0.999339 0.00176615 0)
(1.00039 -0.000225476 0)
(1.00054 -0.000453926 0)
(1.00034 -0.000746107 0)
(1.00008 -0.00128937 0)
(0.999051 -0.00069983 0)
(0.998385 0.000220159 0)
(0.998298 0.000797803 0)
(0.998396 0.00149483 0)
(0.998193 0.00253253 0)
(0.998159 0.00358762 0)
(0.998304 0.00445235 0)
(1.0005 -0.0018986 0)
(0.997786 -0.00164025 0)
(0.997059 0.00173127 0)
(1.0001 -0.00200646 0)
(0.998408 -0.00195992 0)
(0.996161 0.00022999 0)
(0.997781 -0.000477608 0)
(0.998555 0.00124425 0)
(0.999227 0.00178355 0)
(1.00022 -0.00014787 0)
(1.00051 -0.000561686 0)
(1.00028 -0.00055601 0)
(1.00007 -0.000982053 0)
(0.999207 -0.000590833 0)
(0.998569 0.000302334 0)
(0.998466 0.000958178 0)
(0.998631 0.00160149 0)
(0.998505 0.00250064 0)
(0.998477 0.00348506 0)
(0.998585 0.0043171 0)
(1.00046 -0.00166841 0)
(0.998021 -0.00178902 0)
(0.997111 0.00165088 0)
(0.999994 -0.0018274 0)
(0.998605 -0.00202226 0)
(0.996304 0.00036326 0)
(0.997883 -0.000413593 0)
(0.998739 0.000883591 0)
(0.999146 0.00176218 0)
(1.00003 -2.37995e-06 0)
(1.00047 -0.00064697 0)
(1.00025 -0.000443895 0)
(1.00007 -0.000685192 0)
(0.999341 -0.000443682 0)
(0.998762 0.000370272 0)
(0.998645 0.00107783 0)
(0.998849 0.00170199 0)
(0.998793 0.0024931 0)
(0.998786 0.00337978 0)
(0.998865 0.00416806 0)
(1.00042 -0.00145006 0)
(0.998252 -0.00191038 0)
(0.997179 0.00154184 0)
(0.999884 -0.00161608 0)
(0.998807 -0.00209692 0)
(0.996461 0.000456827 0)
(0.997953 -0.000295213 0)
(0.998924 0.000543077 0)
(0.9991 0.00168553 0)
(0.99983 0.000181867 0)
(1.00043 -0.000680199 0)
(1.00026 -0.00039708 0)
(1.00007 -0.000420543 0)
(0.999454 -0.000264676 0)
(0.998955 0.000438018 0)
(0.998834 0.00116436 0)
(0.99906 0.00178104 0)
(0.999059 0.0024993 0)
(0.999077 0.00328933 0)
(0.999136 0.00401638 0)
(1.00038 -0.00124504 0)
(0.998477 -0.0020013 0)
(0.997268 0.00140164 0)
(0.999766 -0.00137194 0)
(0.999008 -0.0021741 0)
(0.996637 0.000491819 0)
(0.997995 -0.000125992 0)
(0.999099 0.000246725 0)
(0.999098 0.00154132 0)
(0.999625 0.000395381 0)
(1.00036 -0.000640462 0)
(1.0003 -0.000397663 0)
(1.00009 -0.000207114 0)
(0.999548 -6.23531e-05 0)
(0.99914 0.000516279 0)
(0.999031 0.00122548 0)
(0.999269 0.00183933 0)
(0.99931 0.00250128 0)
(0.99935 0.00321311 0)
(0.99939 0.00387957 0)
(1.00034 -0.00105673 0)
(0.998695 -0.00205629 0)
(0.997377 0.00122863 0)
(0.999644 -0.00110548 0)
(0.9992 -0.00223731 0)
(0.996837 0.000458781 0)
(0.998015 8.79564e-05 0)
(0.999254 2.49072e-05 0)
(0.999139 0.0013331 0)
(0.999433 0.000609286 0)
(1.00027 -0.000520016 0)
(1.00035 -0.000412361 0)
(1.00014 -5.67224e-05 0)
(0.999634 0.000149812 0)
(0.99931 0.000613071 0)
(0.999229 0.00126624 0)
(0.999476 0.00187914 0)
(0.999548 0.00250026 0)
(0.999609 0.00313866 0)
(0.999628 0.00375379 0)
(1.0003 -0.000886115 0)
(0.998901 -0.0020733 0)
(0.997508 0.00102275 0)
(0.999519 -0.000829915 0)
(0.999377 -0.00226293 0)
(0.997067 0.000349054 0)
(0.998023 0.00032168 0)
(0.999377 -0.000112815 0)
(0.99922 0.00108078 0)
(0.999271 0.000782297 0)
(1.00016 -0.0003432 0)
(1.0004 -0.000409473 0)
(1.00021 3.42614e-05 0)
(0.99972 0.000339169 0)
(0.99946 0.000725121 0)
(0.999425 0.00129435 0)
(0.999687 0.00188871 0)
(0.999774 0.00249304 0)
(0.999851 0.00306803 0)
(0.999859 0.00361947 0)
(1.00027 -0.000735005 0)
(0.999093 -0.002054 0)
(0.997661 0.000798826 0)
(0.999397 -0.000568194 0)
(0.99953 -0.00223416 0)
(0.997325 0.000182245 0)
(0.998033 0.000529765 0)
(0.999461 -0.000149927 0)
(0.999332 0.000819481 0)
(0.999151 0.000889958 0)
(1.00002 -0.000137594 0)
(1.00044 -0.000371596 0)
(1.00032 7.9107e-05 0)
(0.999818 0.000487712 0)
(0.999594 0.00084871 0)
(0.999607 0.00132919 0)
(0.9999 0.00187292 0)
(0.999999 0.00246336 0)
(1.00008 0.00301069 0)
(1.00008 0.00347978 0)
(1.00023 -0.000602844 0)
(0.999269 -0.00200128 0)
(0.997832 0.000564462 0)
(0.999284 -0.000331633 0)
(0.999655 -0.00213833 0)
(0.997605 -1.26692e-05 0)
(0.998057 0.00068507 0)
(0.999508 -9.84959e-05 0)
(0.999458 0.000584847 0)
(0.999076 0.000927178 0)
(0.999873 7.23141e-05 0)
(1.00046 -0.000291738 0)
(1.00044 0.000103609 0)
(0.999938 0.000597394 0)
(0.999721 0.00096964 0)
(0.999772 0.00137562 0)
(1.00011 0.00185094 0)
(1.00023 0.00240478 0)
(1.00029 0.00295758 0)
(1.00029 0.00336579 0)
(1.0002 -0.000492118 0)
(0.999427 -0.00191179 0)
(0.998018 0.000325374 0)
(0.999186 -0.000133025 0)
(0.999749 -0.00197279 0)
(0.997897 -0.000228109 0)
(0.998106 0.000763661 0)
(0.999522 1.28834e-05 0)
(0.999585 0.000407187 0)
(0.999048 0.00090426 0)
(0.999734 0.00027267 0)
(1.00045 -0.00017559 0)
(1.00057 0.000127591 0)
(1.00008 0.000674217 0)
(0.999847 0.00107698 0)
(0.99992 0.001425 0)
(1.0003 0.00182821 0)
(1.00046 0.00232016 0)
(1.00051 0.0028737 0)
(1.00047 0.00328222 0)
(1.00018 -0.000402092 0)
(0.999564 -0.00179286 0)
(0.998216 9.65327e-05 0)
(0.99911 1.82522e-05 0)
(0.99981 -0.00175525 0)
(0.998188 -0.000435967 0)
(0.998189 0.000756745 0)
(0.999517 0.000159005 0)
(0.999699 0.000309868 0)
(0.999061 0.000853384 0)
(0.999613 0.000445449 0)
(1.00043 -3.84818e-05 0)
(1.0007 0.00016187 0)
(1.00024 0.000723074 0)
(0.999979 0.00117354 0)
(1.00005 0.00148265 0)
(1.00047 0.00181537 0)
(1.00069 0.00223209 0)
(1.00074 0.00274596 0)
(1.00064 0.00319077 0)
(1.00015 -0.000329968 0)
(0.999681 -0.00165183 0)
(0.998418 -0.000120053 0)
(0.999059 0.000120798 0)
(0.999841 -0.0015056 0)
(0.998467 -0.0005966 0)
(0.998307 0.000684366 0)
(0.999509 0.000294533 0)
(0.999796 0.000278717 0)
(0.999103 0.000807488 0)
(0.999513 0.000581755 0)
(1.00039 0.00010914 0)
(1.00083 0.000208513 0)
(1.00043 0.00074429 0)
(1.00013 0.00124737 0)
(1.00017 0.00154594 0)
(1.00062 0.00181294 0)
(1.0009 0.00216103 0)
(1.00099 0.00260275 0)
(1.00084 0.00305587 0)
(1.00013 -0.000275818 0)
(0.999776 -0.0014941 0)
(0.998619 -0.000316695 0)
(0.999036 0.000170417 0)
(0.999848 -0.00124425 0)
(0.998721 -0.000690747 0)
(0.998455 0.000566383 0)
(0.999507 0.000387664 0)
(0.999879 0.00029189 0)
(0.999166 0.000782469 0)
(0.999437 0.000699224 0)
(1.00034 0.000259982 0)
(1.00093 0.000268023 0)
(1.00062 0.00075272 0)
(1.00029 0.00128923 0)
(1.00029 0.00160611 0)
(1.00075 0.00181466 0)
(1.00108 0.00209969 0)
(1.00122 0.00247697 0)
(1.00106 0.00288162 0)
(1.00011 -0.000237113 0)
(0.999849 -0.00132781 0)
(0.998814 -0.00047698 0)
(0.999042 0.000168171 0)
(0.99984 -0.000991416 0)
(0.998945 -0.000714259 0)
(0.998621 0.000433083 0)
(0.999522 0.00042721 0)
(0.999955 0.000328316 0)
(0.999245 0.00078095 0)
(0.99938 0.000807184 0)
(1.00027 0.000406972 0)
(1.00102 0.000335761 0)
(1.00082 0.000757217 0)
(1.00048 0.00130762 0)
(1.0004 0.00165719 0)
(1.00085 0.00182991 0)
(1.00124 0.00203726 0)
(1.00142 0.00237259 0)
(1.00129 0.00271042 0)
(1.00009 -0.000208348 0)
(0.999903 -0.0011649 0)
(0.998994 -0.00059365 0)
(0.999075 0.000124365 0)
(0.999825 -0.000759157 0)
(0.999133 -0.000682415 0)
(0.998792 0.000309543 0)
(0.999555 0.000423434 0)
(1.00003 0.000355761 0)
(0.999337 0.000799237 0)
(0.999343 0.000919291 0)
(1.0002 0.000557104 0)
(1.00108 0.000413887 0)
(1.00102 0.000749785 0)
(1.00068 0.00130224 0)
(1.00053 0.00168746 0)
(1.00093 0.00185981 0)
(1.00137 0.00198358 0)
(1.00161 0.0022638 0)
(1.00149 0.00257003 0)
(1.00008 -0.000187945 0)
(0.99994 -0.00101222 0)
(0.999157 -0.00066191 0)
(0.99913 5.35017e-05 0)
(0.999812 -0.000563948 0)
(0.999287 -0.000607992 0)
(0.998957 0.000213635 0)
(0.999602 0.00039737 0)
(1.00012 0.000350981 0)
(0.999449 0.000810643 0)
(0.999324 0.00103643 0)
(1.00012 0.000717153 0)
(1.00111 0.000509485 0)
(1.00121 0.000743274 0)
(1.00091 0.00127176 0)
(1.00067 0.00169399 0)
(1.001 0.00189214 0)
(1.00147 0.00196263 0)
(1.00178 0.00214765 0)
(1.00168 0.00244871 0)
(1.00007 -0.000172207 0)
(0.999965 -0.000876193 0)
(0.999299 -0.000683089 0)
(0.999202 -3.34883e-05 0)
(0.999808 -0.000419268 0)
(0.999412 -0.000504338 0)
(0.99911 0.00015853 0)
(0.999652 0.000366762 0)
(1.00021 0.000326415 0)
(0.999586 0.000795979 0)
(0.999332 0.00114488 0)
(1.00003 0.000890362 0)
(1.00111 0.000618381 0)
(1.00137 0.000751423 0)
(1.00114 0.0012191 0)
(1.00085 0.00166843 0)
(1.00108 0.00190349 0)
(1.00152 0.00196997 0)
(1.00192 0.00204779 0)
(1.00185 0.00231699 0)
(1.00006 -0.000157853 0)
(0.99998 -0.000760939 0)
(0.99942 -0.000666971 0)
(0.999283 -0.000119043 0)
(0.999818 -0.000322614 0)
(0.999518 -0.000393247 0)
(0.999246 0.000139663 0)
(0.999701 0.0003444 0)
(1.0003 0.000294861 0)
(0.999749 0.000743684 0)
(0.999374 0.00122602 0)
(0.999933 0.00107316 0)
(1.00107 0.000747932 0)
(1.0015 0.000775915 0)
(1.00137 0.00116435 0)
(1.00104 0.00161518 0)
(1.00117 0.00188394 0)
(1.00155 0.00198165 0)
(1.00202 0.00198759 0)
(1.00201 0.00217249 0)
(1.00005 -0.000144501 0)
(0.99999 -0.000662346 0)
(0.999521 -0.000629153 0)
(0.999364 -0.000180108 0)
(0.999842 -0.000264427 0)
(0.999611 -0.00028956 0)
(0.999366 0.000149873 0)
(0.999741 0.000346295 0)
(1.00037 0.00027136 0)
(0.999932 0.000655857 0)
(0.999465 0.00125707 0)
(0.999845 0.00124633 0)
(1.001 0.0009033 0)
(1.00159 0.000815279 0)
(1.00158 0.00111456 0)
(1.00125 0.00154612 0)
(1.0013 0.00183405 0)
(1.00158 0.00197106 0)
(1.00206 0.00196332 0)
(1.00215 0.00203898 0)
(1.00005 -0.000131197 0)
(0.999996 -0.000579568 0)
(0.999605 -0.000576299 0)
(0.999442 -0.00021282 0)
(0.999877 -0.000232523 0)
(0.9997 -0.000207634 0)
(0.999476 0.000182725 0)
(0.999774 0.000370198 0)
(1.00043 0.000275071 0)
(1.00012 0.000561305 0)
(0.999608 0.00122047 0)
(0.999783 0.00138752 0)
(1.00088 0.00107735 0)
(1.00162 0.000881226 0)
(1.00177 0.0010672 0)
(1.00147 0.00146544 0)
(1.00144 0.00176535 0)
(1.00163 0.00192673 0)
(1.00206 0.00194998 0)
(1.00224 0.00194111 0)
(1.00004 -0.000116905 0)
(0.999999 -0.000511329 0)
(0.999678 -0.000516163 0)
(0.999514 -0.000218262 0)
(0.999917 -0.000209239 0)
(0.99979 -0.000149414 0)
(0.999579 0.000219047 0)
(0.999799 0.000407802 0)
(1.00046 0.00030764 0)
(1.00031 0.000484927 0)
(0.9998 0.00112022 0)
(0.999772 0.0014652 0)
(1.00075 0.001247 0)
(1.00158 0.000987191 0)
(1.00192 0.00103946 0)
(1.00168 0.00137412 0)
(1.0016 0.00168501 0)
(1.0017 0.00185599 0)
(1.00205 0.00191958 0)
(1.00226 0.0018825 0)
(1.00004 -0.000102569 0)
(1 -0.000451188 0)
(0.999742 -0.000456968 0)
(0.999579 -0.000200612 0)
(0.999958 -0.000184594 0)
(0.999878 -0.000109269 0)
(0.999683 0.000248632 0)