/*--------------------------------*- C++ -*----------------------------------*\
| =========                 |                                                 |
| \\      /  F ield         | OpenFOAM: The Open Source CFD Toolbox           |
|  \\    /   O peration     | Version:  3.0.1                                 |
|   \\  /    A nd           | Web:      www.OpenFOAM.org                      |
|    \\/     M anipulation  |                                                 |
\*---------------------------------------------------------------------------*/
FoamFile
{
    version     2.0;
    format      ascii;
    class       volScalarField;
    location    "3.6";
    object      p;
}
// * * * * * * * * * * * * * * * * * * * * * * * * * * * * * * * * * * * * * //

dimensions      [0 2 -2 0 0 0 0];

internalField   nonuniform List<scalar> 
9600
(
3.55348e-11
-0.00207284
-0.00175711
-0.00176524
-0.0017331
-0.0037043
-0.00129429
0.00031934
-0.000106561
-0.0010383
-0.00116016
-0.00499531
-0.0057454
-0.00376606
-0.0042136
-0.00248545
-0.00218494
-0.000241506
0.00126666
0.00650572
2.53789e-07
-0.00207509
-0.00175324
-0.00177661
-0.00173387
-0.00367167
-0.00130332
0.000302141
-9.87035e-05
-0.00107595
-0.00115562
-0.00501451
-0.00573448
-0.00375864
-0.0042077
-0.0024796
-0.00216986
-0.000260436
0.00130442
0.00603344
-2.74831e-07
-0.00207758
-0.00174998
-0.00179141
-0.00173018
-0.00364602
-0.00131803
0.000283258
-9.35866e-05
-0.00112879
-0.00115134
-0.00502731
-0.00571709
-0.00374305
-0.00418983
-0.00248409
-0.00215328
-0.00029134
0.00131647
0.00553193
-1.93138e-06
-0.00208041
-0.00174906
-0.00180791
-0.00172591
-0.0036228
-0.00133252
0.000262403
-9.93224e-05
-0.00119641
-0.00115698
-0.0050247
-0.00569672
-0.00372119
-0.00416726
-0.0025018
-0.00213791
-0.000336249
0.00129634
0.00506194
-4.65201e-06
-0.00208407
-0.00174933
-0.00182568
-0.0017215
-0.00359952
-0.00134639
0.000237348
-0.000112331
-0.00127931
-0.00116809
-0.00500411
-0.00567317
-0.00369741
-0.00414309
-0.00252879
-0.00212693
-0.00039077
0.00125416
0.00460739
-8.28826e-06
-0.00208891
-0.00175014
-0.00184392
-0.001717
-0.00357555
-0.00135995
0.000207496
-0.000129179
-0.00137356
-0.00117836
-0.00496666
-0.00564633
-0.00367437
-0.00411728
-0.00256149
-0.00212004
-0.000449149
0.00118981
0.0041603
-1.26611e-05
-0.00209517
-0.0017513
-0.00186193
-0.00171245
-0.00355033
-0.00137345
0.000172296
-0.000147709
-0.00147385
-0.00118635
-0.00491565
-0.00561625
-0.0036525
-0.00408939
-0.002597
-0.00211668
-0.000509209
0.0011
0.00372147
-1.76134e-05
-0.00210299
-0.00175265
-0.00187941
-0.00170782
-0.00352342
-0.00138732
0.000131051
-0.000166016
-0.00157633
-0.00119291
-0.00485401
-0.00558295
-0.00363139
-0.00406008
-0.00263256
-0.00211822
-0.000571336
0.000986917
0.00329541
-2.30418e-05
-0.00211237
-0.00175412
-0.00189634
-0.00170307
-0.00349472
-0.00140209
8.38138e-05
-0.000183063
-0.00167875
-0.00119899
-0.00478392
-0.00554667
-0.0036107
-0.00403055
-0.00266601
-0.00212716
-0.000635868
0.000856648
0.00287959
-2.88913e-05
-0.00212318
-0.00175573
-0.00191286
-0.00169814
-0.00346438
-0.00141818
3.12839e-05
-0.000198947
-0.00177993
-0.00120542
-0.00470706
-0.00550816
-0.00358987
-0.00400202
-0.00269654
-0.00214509
-0.000702446
0.000713341
0.0024678
-3.51336e-05
-0.00213522
-0.00175748
-0.00192911
-0.00169309
-0.00343265
-0.00143584
-2.55522e-05
-0.000214436
-0.00187935
-0.00121295
-0.00462499
-0.00546843
-0.00356791
-0.00397611
-0.00272379
-0.00217206
-0.000772391
0.000559143
0.0020562
-4.17518e-05
-0.00214828
-0.00175936
-0.00194526
-0.00168805
-0.00339972
-0.00145519
-8.56789e-05
-0.000230513
-0.00197671
-0.00122236
-0.00453909
-0.00542855
-0.00354384
-0.00395424
-0.00274747
-0.0022073
-0.000849354
0.000397203
0.0016449
-4.87395e-05
-0.00216215
-0.00176136
-0.00196146
-0.00168318
-0.00336568
-0.00147634
-0.000148167
-0.000248161
-0.00207176
-0.00123451
-0.00445031
-0.0053897
-0.00351696
-0.00393716
-0.00276792
-0.00224971
-0.000937239
0.000231922
0.00123532
-5.61054e-05
-0.00217663
-0.00176346
-0.00197779
-0.00167866
-0.00333054
-0.00149938
-0.000212242
-0.000268243
-0.00216413
-0.00125029
-0.00435923
-0.005353
-0.00348661
-0.00392536
-0.00278626
-0.00229745
-0.00103989
6.70955e-05
0.000828081
-6.38763e-05
-0.00219159
-0.00176567
-0.00199427
-0.00167469
-0.00329425
-0.00152444
-0.000277322
-0.000291469
-0.00225342
-0.00127049
-0.00426622
-0.00531939
-0.00345231
-0.00391873
-0.00280475
-0.00234805
-0.00116195
-9.60442e-05
0.000427068
-7.20964e-05
-0.0022069
-0.00176805
-0.0020109
-0.00167148
-0.00325673
-0.00155172
-0.000342985
-0.000318416
-0.00233921
-0.00129592
-0.00417125
-0.0052898
-0.00341401
-0.00391612
-0.00282709
-0.0023977
-0.00130632
-0.000260162
3.97278e-05
-8.08242e-05
-0.00222248
-0.00177068
-0.0020276
-0.00166923
-0.00321785
-0.00158142
-0.000408891
-0.000349622
-0.00242103
-0.00132742
-0.00407405
-0.0052649
-0.00337216
-0.00391587
-0.0028573
-0.00244214
-0.00147266
-0.000428354
-0.000326807
-9.0129e-05
-0.00223822
-0.00177369
-0.00204429
-0.00166819
-0.0031775
-0.00161382
-0.000474756
-0.00038561
-0.00249843
-0.0013657
-0.0039745
-0.00524517
-0.00332762
-0.00391557
-0.00289962
-0.00247895
-0.00165971
-0.000554047
-0.000664717
-0.00010009
-0.00225403
-0.00177723
-0.00206081
-0.00166857
-0.00313556
-0.00164918
-0.000540367
-0.000426775
-0.00257111
-0.0014112
-0.00387257
-0.00523081
-0.00328204
-0.00391172
-0.00295835
-0.00250784
-0.00186469
-0.0007459
-0.00096809
-0.000110798
-0.00226983
-0.00178146
-0.002077
-0.00167067
-0.00309191
-0.00168785
-0.000605523
-0.000473395
-0.00263884
-0.0014643
-0.00376846
-0.00522118
-0.00323821
-0.00390061
-0.00303638
-0.00253099
-0.00208024
-0.000966787
-0.00123581
-0.000122358
-0.00228548
-0.00178658
-0.00209267
-0.00167475
-0.00304641
-0.00173013
-0.000670063
-0.000525733
-0.00270126
-0.00152504
-0.00366291
-0.00521497
-0.00319944
-0.00387905
-0.00313502
-0.00255297
-0.00229644
-0.00121935
-0.00147254
-0.000134884
-0.00230085
-0.00179277
-0.00210763
-0.00168118
-0.00299894
-0.00177627
-0.000733986
-0.000583868
-0.00275785
-0.00159303
-0.00355704
-0.00521099
-0.00316901
-0.00384481
-0.00325377
-0.00257999
-0.00250401
-0.00150405
-0.0016863
-0.000148507
-0.00231577
-0.00180027
-0.00212164
-0.0016903
-0.0029494
-0.00182644
-0.000797386
-0.000647646
-0.00280824
-0.00166741
-0.0034522
-0.00520821
-0.00314981
-0.00379671
-0.00339001
-0.00261953
-0.00269526
-0.00181769
-0.00188858
-0.000163379
-0.00233004
-0.00180934
-0.00213445
-0.00170242
-0.00289782
-0.00188077
-0.000860421
-0.000716726
-0.00285835
-0.0017471
-0.00334967
-0.0052055
-0.00314466
-0.00373445
-0.00353991
-0.00267922
-0.00286381
-0.00215401
-0.0020933
-0.000179674
-0.00234344
-0.00182023
-0.00214584
-0.00171786
-0.00284418
-0.00193927
-0.000923536
-0.000790411
-0.0029066
-0.00183095
-0.00325076
-0.00520153
-0.00315628
-0.00365932
-0.00369838
-0.00276611
-0.00300593
-0.00250346
-0.00231496
-0.000197577
-0.00235571
-0.00183325
-0.00215558
-0.00173696
-0.00278865
-0.0020017
-0.000987417
-0.000867914
-0.00295397
-0.00191783
-0.00315752
-0.00519502
-0.00318646
-0.00357364
-0.0038592
-0.00288606
-0.00312189
-0.00285357
-0.00256668
-0.000217296
-0.00236656
-0.0018487
-0.00216345
-0.00175994
-0.00273152
-0.0020676
-0.001053
-0.00094795
-0.00300165
-0.00200712
-0.00306723
-0.0051854
-0.00323698
-0.00348006
-0.00401544
-0.00304303
-0.00321562
-0.0031912
-0.00285809
-0.000239084
-0.00237565
-0.00186688
-0.00216932
-0.00178693
-0.00267322
-0.00213622
-0.00112163
-0.0010288
-0.00305034
-0.00209893
-0.00298111
-0.00517203
-0.00330968
-0.00338275
-0.00415985
-0.00323857
-0.00329559
-0.00350196
-0.00319148
-0.000263222
-0.00238262
-0.00188807
-0.00217313
-0.00181798
-0.00261439
-0.00220649
-0.0011949
-0.00110901
-0.00310019
-0.00219378
-0.00289975
-0.00515371
-0.00340552
-0.00328788
-0.00428475
-0.00347
-0.00337462
-0.00376953
-0.00355866
-0.000289981
-0.0023871
-0.00191253
-0.0021748
-0.00185301
-0.00255588
-0.00227719
-0.00127446
-0.00118721
-0.0031511
-0.00229282
-0.00282329
-0.00512915
-0.00352478
-0.00320221
-0.00438367
-0.00373071
-0.00346768
-0.00398078
-0.00393972
-0.000319675
-0.00238874
-0.00194041
-0.00217442
-0.00189179
-0.00249884
-0.00234654
-0.00136166
-0.00126301
-0.0032021
-0.00239739
-0.0027525
-0.00509679
-0.00366675
-0.00313236
-0.00445221
-0.00401324
-0.00358447
-0.00413209
-0.00430692
-0.000352635
-0.00238723
-0.00197176
-0.0021723
-0.00193377
-0.00244428
-0.00241218
-0.00145745
-0.00133678
-0.00325148
-0.00250898
-0.00268948
-0.00505415
-0.00382961
-0.00308639
-0.00448726
-0.00430777
-0.00374015
-0.00423529
-0.00463246
-0.000389164
-0.00238226
-0.00200651
-0.00216889
-0.00197832
-0.00239429
-0.00247208
-0.00156242
-0.00140899
-0.00329732
-0.00262923
-0.00263688
-0.00499888
-0.00401007
-0.00307245
-0.00448943
-0.00460036
-0.00394363
-0.00431228
-0.00489213
-0.000429544
-0.00237362
-0.00204437
-0.00216487
-0.00202446
-0.0023507
-0.00252552
-0.00167633
-0.00148102
-0.0033376
-0.00275885
-0.0025982
-0.0049297
-0.00420252
-0.00309695
-0.00446303
-0.00487665
-0.00419423
-0.0043857
-0.00507589
-0.00047399
-0.00236129
-0.00208486
-0.00216101
-0.00207103
-0.00231505
-0.00257198
-0.00179818
-0.0015548
-0.00337067
-0.00289715
-0.00257795
-0.0048466
-0.00440032
-0.0031646
-0.00441517
-0.00512428
-0.00448333
-0.00447657
-0.00519238
-0.00052268
-0.00234549
-0.00212712
-0.00215797
-0.00211726
-0.00228857
-0.00261136
-0.00192649
-0.00163291
-0.00339554
-0.00304253
-0.00258056
-0.00475074
-0.00459566
-0.00327761
-0.00435596
-0.00533348
-0.00479901
-0.0045993
-0.00526162
-0.000575707
-0.00232665
-0.00217037
-0.00215637
-0.00216225
-0.00227223
-0.00264394
-0.00205977
-0.00171791
-0.0034121
-0.00319295
-0.00261013
-0.00464447
-0.00478014
-0.0034357
-0.00429626
-0.00549644
-0.00512942
-0.00476215
-0.00530567
-0.000633035
-0.00230545
-0.00221389
-0.00215643
-0.00220498
-0.00226678
-0.00266996
-0.00219598
-0.00181282
-0.00342167
-0.00334474
-0.00266933
-0.00453235
-0.0049455
-0.00363483
-0.00424853
-0.00560864
-0.00546094
-0.00496926
-0.00534536
-0.000694609
-0.00228265
-0.00225688
-0.00215989
-0.00224466
-0.00227311
-0.00268995
-0.00233186
-0.00192047
-0.00342655
-0.0034931
-0.00275883
-0.00442132
-0.00508492
-0.00386622
-0.004227
-0.00567111
-0.00577695
-0.00522139
-0.0053995
-0.000760313
-0.0022589
-0.00229884
-0.00216428
-0.00228
-0.00229168
-0.00270801
-0.00246401
-0.00204115
-0.00342954
-0.00363376
-0.00287653
-0.00431914
-0.00519445
-0.00412075
-0.00424284
-0.0056899
-0.00606239
-0.00551381
-0.00548441
-0.000829964
-0.00223478
-0.00233951
-0.00217198
-0.00230989
-0.00232235
-0.00272782
-0.00258966
-0.00217335
-0.00343499
-0.00376368
-0.00301685
-0.0042329
-0.00527319
-0.00439004
-0.00430358
-0.00567539
-0.00630248
-0.00583341
-0.00561366
-0.000903282
-0.00221096
-0.00237856
-0.00218404
-0.00233304
-0.00236447
-0.00275445
-0.00270815
-0.00231429
-0.00344671
-0.00388064
-0.00317319
-0.00416909
-0.00532328
-0.00466285
-0.00441292
-0.00564508
-0.00648468
-0.00615932
-0.00579549
-0.000979891
-0.00218804
-0.00241585
-0.0022018
-0.00234795
-0.00241558
-0.00279263
-0.00281989
-0.00246259
-0.00346724
-0.00398359
-0.00333972
-0.00413088
-0.00534792
-0.00492752
-0.00457045
-0.00561958
-0.00660701
-0.00646974
-0.00602714
-0.00105954
-0.00216605
-0.00245089
-0.0022267
-0.00235515
-0.00246866
-0.00284453
-0.00293064
-0.00261514
-0.00349714
-0.00407406
-0.00351231
-0.00411945
-0.00535199
-0.00517397
-0.00476942
-0.005614
-0.00667876
-0.00674521
-0.00629396
-0.00114187
-0.00214543
-0.00248277
-0.00226045
-0.00235958
-0.00252741
-0.00291134
-0.00303898
-0.00276356
-0.00353526
-0.00415724
-0.00368884
-0.00413555
-0.00534194
-0.00539405
-0.00499973
-0.00564131
-0.00671433
-0.00697319
-0.00657505
-0.00122633
-0.00212664
-0.00251117
-0.00230615
-0.00236497
-0.00257892
-0.00298704
-0.00314558
-0.0029065
-0.0035824
-0.00423692
-0.00386832
-0.00417904
-0.00532374
-0.0055821
-0.0052491
-0.0057096
-0.00672985
-0.00714936
-0.00684938
-0.00131251
-0.00211058
-0.00253597
-0.00236361
-0.00237415
-0.00262274
-0.003068
-0.00325622
-0.00304758
-0.00363711
-0.00431286
-0.00404936
-0.00424952
-0.00530387
-0.00573568
-0.0055052
-0.00582072
-0.00674235
-0.00727656
-0.00709911
-0.00140003
-0.00209841
-0.00255539
-0.00243192
-0.00239318
-0.00265862
-0.00314939
-0.00337187
-0.0031889
-0.00369684
-0.00438358
-0.00422967
-0.0043474
-0.00528992
-0.0058551
-0.00575462
-0.00596948
-0.00676681
-0.00736438
-0.00731243
-0.00148793
-0.00209126
-0.0025688
-0.00250986
-0.00242662
-0.00268761
-0.00322553
-0.00349169
-0.0033329
-0.00376148
-0.00444795
-0.00440553
-0.00447086
-0.00529123
-0.00594521
-0.005985
-0.00614557
-0.00681381
-0.00742653
-0.00748477
-0.00157516
-0.00209038
-0.00257645
-0.00259384
-0.00248117
-0.00271552
-0.00329176
-0.00361177
-0.00348142
-0.00383292
-0.00450598
-0.00457298
-0.0046153
-0.00531534
-0.00601343
-0.00618796
-0.00633695
-0.00688744
-0.00747652
-0.00761816
-0.00166087
-0.00209646
-0.00257939
-0.00268043
-0.00255842
-0.00274847
-0.00334529
-0.00372642
-0.00363487
-0.0039152
-0.00455955
-0.0047276
-0.00477471
-0.00536436
-0.00606906
-0.00636148
-0.00653194
-0.00698656
-0.00752614
-0.00772045
-0.00174445
-0.00211012
-0.00257976
-0.00276644
-0.00265826
-0.00279194
-0.00338588
-0.00383104
-0.00379225
-0.00401159
-0.00461168
-0.00486568
-0.00494114
-0.00543802
-0.00612242
-0.00650897
-0.00672123
-0.00710636
-0.00758383
-0.00780106
-0.00182548
-0.00213265
-0.00258041
-0.00284697
-0.00277634
-0.00285202
-0.00341726
-0.00392197
-0.00394972
-0.00412304
-0.00466789
-0.00498773
-0.00510664
-0.00553357
-0.00618082
-0.00663477
-0.00689762
-0.00723884
-0.00765397
-0.00786908
-0.00190382
-0.00216526
-0.00258445
-0.00291712
-0.00290449
-0.00293415
-0.00344793
-0.00399798
-0.00410177
-0.0042478
-0.00473379
-0.00509752
-0.00526487
-0.00564496
-0.00624753
-0.0067435
-0.00705772
-0.00737647
-0.00773757
-0.00793423
-0.00197993
-0.00220739
-0.00259563
-0.00297539
-0.00303426
-0.00303912
-0.00348737
-0.00405971
-0.00424239
-0.00438262
-0.00481237
-0.00519996
-0.00541423
-0.00576505
-0.00632283
-0.00684041
-0.00720175
-0.00751402
-0.00783192
-0.0080036
-0.00205425
-0.00225809
-0.00261642
-0.00302332
-0.00315875
-0.00316498
-0.00354283
-0.00411044
-0.00436727
-0.00452253
-0.0049043
-0.00529953
-0.00555497
-0.0058899
-0.00640593
-0.00692935
-0.00732968
-0.00764751
-0.00793289
-0.00807957
-0.00212712
-0.00231548
-0.00264872
-0.00306556
-0.00327341
-0.00330485
-0.0036184
-0.00415781
-0.00447541
-0.00466027
-0.00500787
-0.0053998
-0.00568774
-0.006017
-0.00649606
-0.00701325
-0.00744211
-0.00777315
-0.00803672
-0.0081608
-0.00219922
-0.00237752
-0.00269292
-0.00310802
-0.00337641
-0.00344962
-0.00371429
-0.00421075
-0.00456872
-0.00478939
-0.00511885
-0.00550363
-0.00581453
-0.00614335
-0.00659196
-0.007095
-0.00754149
-0.00788808
-0.00813982
-0.0082448
-0.00227165
-0.00244349
-0.00274794
-0.00315526
-0.00346817
-0.00359171
-0.00382863
-0.00427541
-0.00465148
-0.0049074
-0.00523101
-0.0056102
-0.00593813
-0.006268
-0.00669203
-0.00717667
-0.00763051
-0.00799103
-0.00823862
-0.00832924
-0.00234529
-0.00251247
-0.00281198
-0.00320995
-0.00355195
-0.00372652
-0.00395566
-0.0043549
-0.00473034
-0.0050148
-0.00533982
-0.00571589
-0.00605878
-0.00639213
-0.00679483
-0.00725843
-0.00771098
-0.00808214
-0.00833064
-0.00841216
-0.00242095
-0.00258426
-0.00288292
-0.00327325
-0.00363284
-0.00385255
-0.00408741
-0.00444881
-0.0048118
-0.00511296
-0.00544336
-0.0058182
-0.00617407
-0.00651439
-0.0069002
-0.00734102
-0.00778526
-0.00816227
-0.00841399
-0.00849068
-0.00249927
-0.00265912
-0.00295881
-0.00334497
-0.00371496
-0.00397044
-0.00421787
-0.00455432
-0.00490035
-0.00520594
-0.00553982
-0.00591564
-0.00628205
-0.00663102
-0.00700709
-0.00742623
-0.00785614
-0.00823278
-0.00848738
-0.00856187
-0.00258066
-0.00273749
-0.00303857
-0.00342412
-0.00380085
-0.00408201
-0.00434425
-0.00466606
-0.00499607
-0.00529913
-0.00562973
-0.00600572
-0.00638216
-0.00673918
-0.00711067
-0.00751329
-0.0079261
-0.0082969
-0.00855247
-0.00862555
-0.00266528
-0.00281975
-0.00312203
-0.00350909
-0.00389138
-0.00419061
-0.0044661
-0.00477924
-0.00509656
-0.00539485
-0.00571716
-0.00608737
-0.00647204
-0.00683823
-0.00720732
-0.00759801
-0.00799473
-0.00835644
-0.00861135
-0.00868337
-0.00275325
-0.0029062
-0.0032095
-0.00359823
-0.00398615
-0.00429919
-0.00458403
-0.00489139
-0.00519914
-0.00549129
-0.00580456
-0.00616365
-0.00654994
-0.00692569
-0.00729506
-0.00767628
-0.008059
-0.00840949
-0.0086628
-0.00873582
-0.00284479
-0.00299707
-0.0033011
-0.00369099
-0.00408467
-0.00440888
-0.00469912
-0.00500147
-0.00530196
-0.00558709
-0.00588998
-0.00623693
-0.00661738
-0.00699845
-0.00737138
-0.00774542
-0.00811616
-0.00845414
-0.00870279
-0.00877802
-0.00294008
-0.00309244
-0.00339713
-0.00378734
-0.00418593
-0.0045199
-0.00481369
-0.00510946
-0.00540263
-0.00568178
-0.00597239
-0.00630505
-0.00667604
-0.00705604
-0.00743257
-0.00780295
-0.00816398
-0.00849064
-0.00873131
-0.00880632
-0.00303929
-0.00319182
-0.0034977
-0.00388793
-0.00428976
-0.00463168
-0.00492849
-0.00521652
-0.00550035
-0.00577378
-0.00605219
-0.00636542
-0.00672255
-0.00709719
-0.0074743
-0.00784498
-0.00820036
-0.00851884
-0.00875266
-0.00882576
-0.00314266
-0.0032954
-0.00360241
-0.00399273
-0.00439711
-0.00474471
-0.00504303
-0.00532364
-0.0055962
-0.00586141
-0.00612928
-0.00641996
-0.00675403
-0.0071173
-0.00748959
-0.00786094
-0.00821732
-0.00853273
-0.00876382
-0.00883878
-0.00325031
-0.00340341
-0.00371145
-0.00410159
-0.00450725
-0.00485977
-0.00515864
-0.0054312
-0.00569108
-0.00594392
-0.00620032
-0.00647153
-0.00677614
-0.0071162
-0.00747335
-0.00783572
-0.00819383
-0.00851525
-0.00875161
-0.00883294
-0.0033624
-0.00351438
-0.0038244
-0.00421524
-0.00462043
-0.00497656
-0.00527666
-0.00554052
-0.0057865
-0.00602366
-0.00626157
-0.0065127
-0.00679105
-0.0070976
-0.00742712
-0.00776832
-0.00811198
-0.00843551
-0.00868903
-0.00879323
-0.00347966
-0.00363065
-0.00394079
-0.00433198
-0.00473722
-0.0050962
-0.00539778
-0.00565431
-0.00588387
-0.00610337
-0.00631827
-0.00653775
-0.00678486
-0.0070563
-0.00734918
-0.00765428
-0.00796465
-0.00827098
-0.00853171
-0.00866676
-0.00360136
-0.00375235
-0.00406143
-0.00445183
-0.00485708
-0.00521876
-0.00552327
-0.00577715
-0.00599099
-0.00618719
-0.00637315
-0.00654679
-0.00674694
-0.00698135
-0.00723854
-0.00751184
-0.00778568
-0.0080496
-0.0082625
-0.00836475
-0.00372474
-0.0038754
-0.00418701
-0.00457611
-0.00498004
-0.00534238
-0.00565206
-0.00591222
-0.00612835
-0.0063097
-0.0064481
-0.00653352
-0.00660923
-0.00671631
-0.00687247
-0.00710338
-0.00741958
-0.0077941
-0.00815974
-0.00842333
-0.00385345
-0.0040048
-0.00431773
-0.00470329
-0.00510011
-0.00545844
-0.00577127
-0.00604799
-0.00629351
-0.00652409
-0.00673677
-0.00686063
-0.00683476
-0.00671378
-0.00659102
-0.00651257
-0.00645746
-0.00638642
-0.00631066
-0.00629736
-0.00399192
-0.00414401
-0.00445167
-0.00483335
-0.00521851
-0.0055663
-0.00587377
-0.00615269
-0.00639012
-0.00651569
-0.00649628
-0.00640633
-0.00633734
-0.00632748
-0.00639035
-0.00649689
-0.00661331
-0.00671804
-0.00681545
-0.00694938
-0.00413996
-0.00427824
-0.00458647
-0.00496935
-0.00536066
-0.0057124
-0.00598226
-0.00612937
-0.00619129
-0.00624655
-0.0063258
-0.00641811
-0.00652793
-0.00660741
-0.0066236
-0.00656305
-0.00642444
-0.00625126
-0.00609684
-0.00604879
-0.00432129
-0.00443544
-0.0046746
-0.00497154
-0.00527877
-0.00555272
-0.00578267
-0.00597357
-0.00611396
-0.00621587
-0.006317
-0.00638986
-0.00646259
-0.0065693
-0.00672066
-0.00696168
-0.00729606
-0.00770439
-0.00813538
-0.00850794
-0.00453139
-0.00465528
-0.00480012
-0.00499187
-0.0052346
-0.00550087
-0.00576831
-0.00601678
-0.00621401
-0.00633459
-0.00643722
-0.00651867
-0.00654579
-0.00656688
-0.00655067
-0.00646997
-0.00633917
-0.00619851
-0.00611698
-0.00616769
-0.0046607
-0.00477298
-0.00488838
-0.00503048
-0.00522846
-0.00547966
-0.00573885
-0.00595205
-0.00611495
-0.00621732
-0.00630774
-0.00642604
-0.0065219
-0.00660857
-0.006694
-0.00675847
-0.00680054
-0.00684178
-0.00692343
-0.00710186
0.00899454
0.00212191
-0.00619673
-0.0121833
-0.013908
-0.0135536
-0.0129091
-0.0121098
-0.0111383
-0.0102516
-0.00968075
-0.00945469
-0.00953498
-0.00981095
-0.00999106
-0.00989549
-0.00970483
-0.00963868
-0.00971908
-0.00987597
-0.0100002
-0.0100386
-0.0100703
-0.0101616
-0.0102728
-0.010332
-0.0103239
-0.0103151
-0.0103757
-0.0104798
-0.0105515
-0.0105769
-0.0106095
-0.0106867
-0.0107824
-0.0108609
-0.0109297
-0.0110184
-0.0111173
-0.0111874
-0.0112331
-0.0112898
-0.0113515
-0.0113884
-0.0114227
-0.011495
-0.01158
-0.0116495
-0.0117243
-0.0118149
-0.011887
-0.0119249
-0.0119718
-0.0120305
-0.012077
-0.0121495
-0.012251
-0.0123305
-0.0123989
-0.0124687
-0.0125176
-0.0125565
-0.0126177
-0.0126935
-0.0127717
-0.0128503
-0.0129282
-0.0129943
-0.0130601
-0.0131271
-0.0131956
-0.0132654
-0.0133444
-0.0134232
-0.0135025
-0.0135792
-0.0136585
-0.0137355
-0.0138142
-0.0138911
-0.0139725
-0.0140568
-0.0141415
-0.014226
-0.0143061
-0.0143921
-0.0144743
-0.0145646
-0.0146476
-0.0147343
-0.0148181
-0.0149051
-0.0149946
-0.0150817
-0.015168
-0.0152619
-0.0153616
-0.0154269
-0.0156756
-0.0158586
0.00824929
0.00197286
-0.00610188
-0.0120287
-0.0138253
-0.0135195
-0.0128918
-0.012099
-0.0111297
-0.0102437
-0.00967314
-0.00944711
-0.00952781
-0.00980506
-0.00998661
-0.00989173
-0.00970117
-0.00963515
-0.00971581
-0.00987312
-0.00999778
-0.0100363
-0.010068
-0.0101595
-0.0102708
-0.0103303
-0.0103223
-0.0103135
-0.0103741
-0.0104784
-0.0105502
-0.0105757
-0.0106084
-0.0106856
-0.0107814
-0.01086
-0.0109289
-0.0110176
-0.0111165
-0.0111867
-0.0112324
-0.0112892
-0.0113509
-0.0113879
-0.0114222
-0.0114945
-0.0115795
-0.011649
-0.0117239
-0.0118144
-0.0118866
-0.0119245
-0.0119714
-0.0120302
-0.0120767
-0.0121492
-0.0122507
-0.0123302
-0.0123986
-0.0124684
-0.0125173
-0.0125563
-0.0126175
-0.0126932
-0.0127714
-0.0128501
-0.012928
-0.0129941
-0.0130599
-0.0131269
-0.0131954
-0.0132652
-0.0133442
-0.013423
-0.0135024
-0.013579
-0.0136584
-0.0137353
-0.0138141
-0.013891
-0.0139724
-0.0140567
-0.0141414
-0.0142259
-0.014306
-0.014392
-0.0144742
-0.0145645
-0.0146475
-0.0147342
-0.014818
-0.014905
-0.0149945
-0.0150816
-0.0151679
-0.0152618
-0.0153615
-0.0154268
-0.0156755
-0.0158587
0.00752543
0.00177376
-0.00595035
-0.0117609
-0.0136812
-0.0134645
-0.012863
-0.0120805
-0.011117
-0.0102347
-0.00966664
-0.00944167
-0.00952209
-0.00979911
-0.00998124
-0.0098872
-0.00969737
-0.00963183
-0.00971271
-0.00987034
-0.00999545
-0.0100343
-0.0100661
-0.0101577
-0.0102691
-0.0103287
-0.0103208
-0.010312
-0.0103726
-0.0104771
-0.0105491
-0.0105746
-0.0106073
-0.0106847
-0.0107805
-0.0108591
-0.0109281
-0.0110169
-0.0111159
-0.0111861
-0.0112318
-0.0112886
-0.0113504
-0.0113874
-0.0114216
-0.011494
-0.0115791
-0.0116486
-0.0117234
-0.0118141
-0.0118863
-0.0119242
-0.011971
-0.0120298
-0.0120764
-0.0121488
-0.0122504
-0.0123299
-0.0123983
-0.0124681
-0.0125171
-0.012556
-0.0126172
-0.012693
-0.0127712
-0.0128499
-0.0129278
-0.0129939
-0.0130597
-0.0131268
-0.0131953
-0.0132651
-0.0133441
-0.0134228
-0.0135022
-0.0135789
-0.0136582
-0.0137352
-0.013814
-0.0138909
-0.0139723
-0.0140565
-0.0141413
-0.0142258
-0.0143059
-0.0143919
-0.0144741
-0.0145644
-0.0146475
-0.0147341
-0.0148179
-0.0149049
-0.0149944
-0.0150816
-0.0151679
-0.0152617
-0.0153615
-0.0154267
-0.0156754
-0.0158588
0.00683848
0.00156499
-0.00576175
-0.0114145
-0.0134695
-0.0133715
-0.0128093
-0.0120452
-0.0110949
-0.0102217
-0.00966007
-0.00943825
-0.0095179
-0.00979219
-0.00997307
-0.00988045
-0.00969295
-0.00962849
-0.00970902
-0.00986634
-0.00999201
-0.0100318
-0.0100642
-0.0101559
-0.0102673
-0.0103269
-0.0103191
-0.0103104
-0.0103711
-0.0104757
-0.0105477
-0.0105734
-0.0106061
-0.0106836
-0.0107795
-0.0108582
-0.0109272
-0.0110161
-0.0111152
-0.0111854
-0.0112312
-0.011288
-0.0113498
-0.0113868
-0.0114211
-0.0114935
-0.0115786
-0.0116482
-0.011723
-0.0118137
-0.0118859
-0.0119238
-0.0119707
-0.0120295
-0.012076
-0.0121485
-0.0122501
-0.0123297
-0.0123981
-0.0124679
-0.0125168
-0.0125558
-0.012617
-0.0126928
-0.012771
-0.0128497
-0.0129276
-0.0129937
-0.0130595
-0.0131266
-0.0131951
-0.0132649
-0.0133439
-0.0134227
-0.0135021
-0.0135787
-0.0136581
-0.0137351
-0.0138138
-0.0138907
-0.0139721
-0.0140564
-0.0141411
-0.0142257
-0.0143058
-0.0143918
-0.014474
-0.0145643
-0.0146474
-0.014734
-0.0148178
-0.0149048
-0.0149943
-0.0150815
-0.0151678
-0.0152617
-0.0153614
-0.0154266
-0.0156752
-0.015859
0.0061647
0.00134658
-0.00555599
-0.0110374
-0.0132234
-0.0132552
-0.0127373
-0.0119949
-0.0110629
-0.0102038
-0.0096524
-0.0094365
-0.00951539
-0.00978392
-0.00996092
-0.00987042
-0.00968784
-0.0096258
-0.00970512
-0.00986056
-0.00998634
-0.0100279
-0.0100619
-0.0101539
-0.0102648
-0.0103244
-0.0103172
-0.0103089
-0.0103696
-0.0104739
-0.010546
-0.0105718
-0.0106047
-0.0106822
-0.0107781
-0.010857
-0.0109262
-0.0110151
-0.0111143
-0.0111846
-0.0112304
-0.0112873
-0.0113492
-0.0113862
-0.0114205
-0.0114929
-0.0115781
-0.0116477
-0.0117226
-0.0118133
-0.0118855
-0.0119235
-0.0119703
-0.0120291
-0.0120756
-0.0121481
-0.0122498
-0.0123294
-0.0123978
-0.0124676
-0.0125166
-0.0125555
-0.0126167
-0.0126925
-0.0127708
-0.0128495
-0.0129274
-0.0129935
-0.0130593
-0.0131264
-0.0131949
-0.0132647
-0.0133437
-0.0134225
-0.0135019
-0.0135786
-0.0136579
-0.0137349
-0.0138137
-0.0138906
-0.013972
-0.0140563
-0.014141
-0.0142256
-0.0143057
-0.0143917
-0.0144739
-0.0145642
-0.0146473
-0.0147339
-0.0148177
-0.0149047
-0.0149943
-0.0150814
-0.0151677
-0.0152616
-0.0153613
-0.0154265
-0.015675
-0.0158593
0.00550501
0.00111938
-0.00535456
-0.0106553
-0.0129621
-0.0131295
-0.0126584
-0.0119365
-0.011024
-0.0101819
-0.0096436
-0.00943574
-0.00951388
-0.00977421
-0.00994507
-0.00985732
-0.0096822
-0.00962427
-0.00970179
-0.00985346
-0.0099783
-0.0100223
-0.0100589
-0.0101513
-0.0102614
-0.0103209
-0.0103147
-0.0103074
-0.0103679
-0.0104717
-0.0105437
-0.01057
-0.0106031
-0.0106804
-0.0107762
-0.0108553
-0.0109249
-0.0110139
-0.0111131
-0.0111835
-0.0112295
-0.0112864
-0.0113483
-0.0113853
-0.0114197
-0.0114922
-0.0115775
-0.0116471
-0.011722
-0.0118128
-0.0118851
-0.011923
-0.0119698
-0.0120287
-0.0120752
-0.0121477
-0.0122495
-0.012329
-0.0123975
-0.0124673
-0.0125163
-0.0125552
-0.0126164
-0.0126923
-0.0127705
-0.0128492
-0.0129272
-0.0129933
-0.0130591
-0.0131262
-0.0131947
-0.0132645
-0.0133435
-0.0134223
-0.0135018
-0.0135784
-0.0136578
-0.0137348
-0.0138135
-0.0138905
-0.0139719
-0.0140562
-0.0141409
-0.0142255
-0.0143056
-0.0143916
-0.0144738
-0.0145641
-0.0146472
-0.0147338
-0.0148177
-0.0149046
-0.0149942
-0.0150813
-0.0151676
-0.0152615
-0.0153612
-0.0154263
-0.0156748
-0.0158597
0.00486959
0.000879719
-0.00517488
-0.0102783
-0.0126883
-0.0129961
-0.0125759
-0.0118733
-0.0109801
-0.0101566
-0.00963344
-0.00943504
-0.00951256
-0.00976336
-0.00992674
-0.00984204
-0.00967615
-0.00962383
-0.00969948
-0.00984599
-0.00996877
-0.0100152
-0.0100549
-0.0101478
-0.0102566
-0.010316
-0.0103116
-0.0103058
-0.0103662
-0.0104689
-0.0105408
-0.010568
-0.0106015
-0.0106782
-0.0107736
-0.0108531
-0.0109231
-0.0110123
-0.0111114
-0.0111821
-0.0112283
-0.0112853
-0.0113472
-0.0113843
-0.0114188
-0.0114913
-0.0115766
-0.0116463
-0.0117214
-0.0118122
-0.0118845
-0.0119225
-0.0119693
-0.0120282
-0.0120747
-0.0121472
-0.0122491
-0.0123286
-0.0123971
-0.012467
-0.0125159
-0.0125548
-0.0126161
-0.0126919
-0.0127702
-0.012849
-0.0129269
-0.0129931
-0.0130588
-0.0131259
-0.0131945
-0.0132643
-0.0133433
-0.0134221
-0.0135016
-0.0135782
-0.0136576
-0.0137346
-0.0138134
-0.0138903
-0.0139717
-0.014056
-0.0141408
-0.0142253
-0.0143054
-0.0143915
-0.0144736
-0.014564
-0.0146471
-0.0147337
-0.0148175
-0.0149045
-0.0149941
-0.0150812
-0.0151675
-0.0152614
-0.0153612
-0.0154262
-0.0156744
-0.01586
0.00426247
0.000620049
-0.00502608
-0.00990598
-0.0123962
-0.0128512
-0.0124898
-0.0118066
-0.0109321
-0.0101282
-0.00962156
-0.00943369
-0.00951103
-0.00975186
-0.00990706
-0.00982541
-0.00966961
-0.00962389
-0.00969796
-0.00983881
-0.00995885
-0.0100075
-0.0100502
-0.0101432
-0.0102503
-0.0103097
-0.0103077
-0.0103041
-0.0103642
-0.0104655
-0.0105374
-0.0105659
-0.0106
-0.0106759
-0.0107705
-0.0108503
-0.0109209
-0.0110102
-0.0111091
-0.0111801
-0.0112269
-0.0112841
-0.0113458
-0.011383
-0.0114176
-0.0114902
-0.0115755
-0.0116454
-0.0117206
-0.0118115
-0.0118839
-0.0119218
-0.0119686
-0.0120275
-0.0120741
-0.0121467
-0.0122485
-0.0123282
-0.0123967
-0.0124666
-0.0125155
-0.0125544
-0.0126157
-0.0126916
-0.0127699
-0.0128486
-0.0129266
-0.0129928
-0.0130586
-0.0131257
-0.0131942
-0.013264
-0.0133431
-0.0134219
-0.0135013
-0.013578
-0.0136574
-0.0137344
-0.0138132
-0.0138901
-0.0139715
-0.0140559
-0.0141406
-0.0142252
-0.0143053
-0.0143914
-0.0144735
-0.0145638
-0.0146469
-0.0147336
-0.0148174
-0.0149044
-0.014994
-0.0150811
-0.0151674
-0.0152613
-0.0153611
-0.015426
-0.015674
-0.0158604
0.00368069
0.000340942
-0.0049046
-0.00953348
-0.0120823
-0.0126929
-0.0124012
-0.0117382
-0.0108809
-0.0100967
-0.00960754
-0.00943132
-0.00950923
-0.00974004
-0.00988656
-0.00980779
-0.00966244
-0.0096239
-0.00969677
-0.00983193
-0.00994903
-0.00999977
-0.0100452
-0.0101377
-0.0102428
-0.0103021
-0.010303
-0.0103021
-0.0103619
-0.0104614
-0.0105332
-0.0105635
-0.0105987
-0.0106737
-0.0107672
-0.0108471
-0.0109184
-0.0110076
-0.0111062
-0.0111776
-0.0112252
-0.0112825
-0.0113442
-0.0113816
-0.0114164
-0.0114889
-0.011574
-0.0116441
-0.0117196
-0.0118105
-0.011883
-0.0119211
-0.0119679
-0.0120267
-0.0120733
-0.012146
-0.0122479
-0.0123276
-0.0123962
-0.0124662
-0.0125151
-0.012554
-0.0126152
-0.0126912
-0.0127695
-0.0128483
-0.0129263
-0.0129924
-0.0130582
-0.0131254
-0.0131939
-0.0132637
-0.0133428
-0.0134216
-0.0135011
-0.0135777
-0.0136571
-0.0137342
-0.0138129
-0.0138899
-0.0139713
-0.0140557
-0.0141404
-0.014225
-0.0143051
-0.0143912
-0.0144733
-0.0145637
-0.0146468
-0.0147335
-0.0148173
-0.0149043
-0.0149938
-0.015081
-0.0151673
-0.0152611
-0.0153609
-0.0154258
-0.0156734
-0.0158608
0.00312269
5.45188e-05
-0.00480406
-0.00916366
-0.0117492
-0.0125213
-0.0123106
-0.0116691
-0.0108268
-0.0100617