/*--------------------------------*- C++ -*----------------------------------*\
| =========                 |                                                 |
| \\      /  F ield         | OpenFOAM: The Open Source CFD Toolbox           |
|  \\    /   O peration     | Version:  3.0.1                                 |
|   \\  /    A nd           | Web:      www.OpenFOAM.org                      |
|    \\/     M anipulation  |                                                 |
\*---------------------------------------------------------------------------*/
FoamFile
{
    version     2.0;
    format      ascii;
    class       surfaceScalarField;
    location    "3.6";
    object      phi;
}
// * * * * * * * * * * * * * * * * * * * * * * * * * * * * * * * * * * * * * //

dimensions      [0 3 -1 0 0 0 0];

internalField   nonuniform List<scalar> 
19000
(
1.17123e-06
4.59664e-07
1.15818e-06
-6.69351e-07
1.17988e-06
1.05512e-06
1.11543e-06
-6.73818e-07
1.13054e-06
-1.91736e-07
1.19821e-06
-1.07738e-07
1.16898e-06
1.06666e-07
1.13243e-06
-1.77252e-07
1.1634e-06
1.31075e-06
1.08623e-06
-3.55515e-07
1.12857e-06
8.38082e-07
1.08329e-06
-2.27014e-07
1.11631e-06
-3.42597e-07
1.11161e-06
-2.2391e-07
1.12407e-06
-5.22853e-07
1.14855e-06
-1.69927e-07
1.15433e-06
-3.16586e-07
1.15835e-06
-7.7384e-08
1.16328e-06
-1.09188e-07
4.49546e-08
1.14103e-06
1.22482e-06
4.59106e-07
1.2121e-06
-6.56636e-07
1.23106e-06
1.03617e-06
1.16964e-06
-6.12399e-07
1.18246e-06
-2.04556e-07
1.25199e-06
-1.77271e-07
1.22181e-06
1.36846e-07
1.18687e-06
-1.42308e-07
1.21199e-06
1.28563e-06
1.14266e-06
-2.86179e-07
1.16987e-06
8.10871e-07
1.14643e-06
-2.03576e-07
1.16558e-06
-3.61751e-07
1.18055e-06
-2.38877e-07
1.17975e-06
-5.22053e-07
1.22045e-06
-2.10627e-07
1.20583e-06
-3.01963e-07
1.23246e-06
-1.04012e-07
1.20791e-06
-8.46453e-08
2.81824e-08
1.22469e-06
1.28168e-06
4.60214e-07
1.26752e-06
-6.42483e-07
1.28435e-06
1.01935e-06
1.23234e-06
-5.60391e-07
1.238e-06
-2.10218e-07
1.30415e-06
-2.43427e-07
1.27896e-06
1.62044e-07
1.2427e-06
-1.06054e-07
1.26245e-06
1.26588e-06
1.20715e-06
-2.30878e-07
1.22294e-06
7.95077e-07
1.22263e-06
-2.03262e-07
1.22502e-06
-3.6414e-07
1.25155e-06
-2.65413e-07
1.24187e-06
-5.12368e-07
1.278e-06
-2.46754e-07
1.26644e-06
-2.90408e-07
1.28084e-06
-1.18415e-07
1.27127e-06
-7.50693e-08
3.31234e-08
1.26633e-06
1.34223e-06
4.6209e-07
1.32677e-06
-6.27029e-07
1.34138e-06
1.00474e-06
1.30332e-06
-5.22326e-07
1.29935e-06
-2.06251e-07
1.35757e-06
-3.0165e-07
1.34044e-06
1.7918e-07
1.30216e-06
-6.77782e-08
1.31674e-06
1.2513e-06
1.27889e-06
-1.93031e-07
1.28882e-06
7.85147e-07
1.30081e-06
-2.15251e-07
1.29428e-06
-3.57612e-07
1.31941e-06
-2.90541e-07
1.31096e-06
-5.03923e-07
1.33399e-06
-2.69778e-07
1.33286e-06
-2.89276e-07
1.33756e-06
-1.23123e-07
1.33385e-06
-7.13517e-08
4.07361e-08
1.32623e-06
1.40678e-06
4.63662e-07
1.39072e-06
-6.10964e-07
1.4035e-06
9.91955e-07
1.37966e-06
-4.98486e-07
1.36749e-06
-1.94078e-07
1.41399e-06
-3.48157e-07
1.40626e-06
1.86913e-07
1.36697e-06
-2.84854e-08
1.37749e-06
1.24077e-06
1.35518e-06
-1.70715e-07
1.36504e-06
7.75286e-07
1.37881e-06
-2.29025e-07
1.37043e-06
-3.4923e-07
1.388e-06
-3.08111e-07
1.38276e-06
-4.9868e-07
1.39718e-06
-2.84198e-07
1.40031e-06
-2.9241e-07
1.40471e-06
-1.27517e-07
1.40002e-06
-6.66655e-08
4.74537e-08
1.3933e-06
1.47519e-06
4.64149e-07
1.4595e-06
-5.95275e-07
1.47114e-06
9.80311e-07
1.4584e-06
-4.85744e-07
1.44171e-06
-1.7739e-07
1.47474e-06
-3.81182e-07
1.47501e-06
1.86645e-07
1.4378e-06
8.71924e-09
1.44663e-06
1.23195e-06
1.4349e-06
-1.58986e-07
1.44708e-06
7.63098e-07
1.45762e-06
-2.39562e-07
1.44953e-06
-3.41137e-07
1.45933e-06
-3.17915e-07
1.45463e-06
-4.9398e-07
1.46517e-06
-2.94735e-07
1.46834e-06
-2.95584e-07
1.47402e-06
-1.3319e-07
1.46999e-06
-6.26449e-08
5.44666e-08
1.46298e-06
1.54707e-06
4.63291e-07
1.53272e-06
-5.80916e-07
1.54385e-06
9.69176e-07
1.53783e-06
-4.79719e-07
1.52033e-06
-1.59896e-07
1.54047e-06
-4.01321e-07
1.54548e-06
1.81639e-07
1.51393e-06
4.02614e-08
1.52383e-06
1.22206e-06
1.51762e-06
-1.52773e-07
1.53205e-06
7.4866e-07
1.5381e-06
-2.4561e-07
1.53002e-06
-3.33059e-07
1.53361e-06
-3.21496e-07
1.52737e-06
-4.87741e-07
1.53507e-06
-3.02436e-07
1.53762e-06
-2.98134e-07
1.54299e-06
-1.38566e-07
1.54085e-06
-6.0498e-08
6.12296e-08
1.53408e-06
1.62212e-06
4.61301e-07
1.60975e-06
-5.68546e-07
1.62074e-06
9.58182e-07
1.61759e-06
-4.76569e-07
1.60177e-06
-1.44073e-07
1.61129e-06
-4.10838e-07
1.61768e-06
1.75249e-07
1.59399e-06
6.39462e-08
1.60698e-06
1.20907e-06
1.60274e-06
-1.48531e-07
1.61893e-06
7.32474e-07
1.62048e-06
-2.47159e-07
1.61217e-06
-3.24755e-07
1.611e-06
-3.20329e-07
1.60275e-06
-4.7949e-07
1.60695e-06
-3.06634e-07
1.60882e-06
-3.00006e-07
1.61274e-06
-1.42482e-07
1.61199e-06
-5.97541e-08
6.69506e-08
1.60627e-06
1.70028e-06
4.58596e-07
1.69012e-06
-5.58384e-07
1.70113e-06
9.47168e-07
1.69832e-06
-4.73753e-07
1.68532e-06
-1.31075e-07
1.68702e-06
-4.12539e-07
1.69254e-06
1.69722e-07
1.67692e-06
7.95695e-08
1.69379e-06
1.1922e-06
1.68964e-06
-1.4438e-07
1.70746e-06
7.14653e-07
1.70477e-06
-2.44472e-07
1.69655e-06
-3.16528e-07
1.69173e-06
-3.15511e-07
1.68195e-06
-4.69711e-07
1.6821e-06
-3.06785e-07
1.68289e-06
-3.00795e-07
1.6848e-06
-1.44387e-07
1.68456e-06
-5.95153e-08
7.12721e-08
1.68024e-06
1.78179e-06
4.55528e-07
1.77361e-06
-5.50209e-07
1.78475e-06
9.36029e-07
1.781e-06
-4.70003e-07
1.77105e-06
-1.21121e-07
1.76743e-06
-4.08923e-07
1.77118e-06
1.65976e-07
1.76235e-06
8.8394e-08
1.78294e-06
1.17161e-06
1.77806e-06
-1.39495e-07
1.79762e-06
6.95093e-07
1.79109e-06
-2.37942e-07
1.7835e-06
-3.08939e-07
1.77582e-06
-3.07836e-07
1.76533e-06
-4.59216e-07
1.76152e-06
-3.02974e-07
1.76075e-06
-3.00027e-07
1.76043e-06
-1.44069e-07
1.75984e-06
-5.89204e-08
7.40256e-08
1.75708e-06
1.86702e-06
4.52258e-07
1.8603e-06
-5.43486e-07
1.87173e-06
9.24591e-07
1.86665e-06
-4.64921e-07
1.8594e-06
-1.13871e-07
1.85232e-06
-4.01837e-07
1.85435e-06
1.63943e-07
1.85041e-06
9.23316e-08
1.87416e-06
1.14786e-06
1.86817e-06
-1.33504e-07
1.88953e-06
6.73733e-07
1.87966e-06
-2.28075e-07
1.8732e-06
-3.02476e-07
1.86324e-06
-2.97873e-07
1.85279e-06
-4.48772e-07
1.84561e-06
-2.95786e-07
1.84303e-06
-2.97452e-07
1.84061e-06
-1.41646e-07
1.83884e-06
-5.7148e-08
7.5139e-08
1.83772e-06
1.9563e-06
4.48794e-07
1.95037e-06
-5.37553e-07
1.96237e-06
9.12592e-07
1.95601e-06
-4.5856e-07
1.95083e-06
-1.08696e-07
1.94148e-06
-3.92486e-07
1.9424e-06
1.63029e-07
1.94139e-06
9.33431e-08
1.96772e-06
1.12153e-06
1.96041e-06
-1.26201e-07
1.98354e-06
6.50608e-07
1.97091e-06
-2.15442e-07
1.96584e-06
-2.9741e-07
1.95401e-06
-2.86045e-07
1.94415e-06
-4.38906e-07
1.93444e-06
-2.8608e-07
1.93002e-06
-2.93036e-07
1.92599e-06
-1.37617e-07
1.92232e-06
-5.34748e-08
7.4697e-08
1.92276e-06
2.0499e-06
4.45081e-07
2.04413e-06
-5.31783e-07
2.057e-06
8.99724e-07
2.04956e-06
-4.51124e-07
2.04577e-06
-1.04903e-07
2.03485e-06
-3.81563e-07
2.03539e-06
1.62488e-07
2.03563e-06
9.30979e-08
2.06409e-06
1.09307e-06
2.05537e-06
-1.1748e-07
2.08019e-06
6.25785e-07
2.06536e-06
-2.00612e-07
2.06176e-06
-2.9381e-07
2.04837e-06
-2.72657e-07
2.03931e-06
-4.29842e-07
2.028e-06
-2.74775e-07
2.02178e-06
-2.86816e-07
2.01696e-06
-1.32798e-07
2.01091e-06
-4.74212e-08
7.29763e-08
2.01263e-06
2.14802e-06
4.41066e-07
2.14192e-06
-5.25682e-07
2.15594e-06
8.85704e-07
2.14761e-06
-4.42799e-07
2.14461e-06
-1.01901e-07
2.13245e-06
-3.694e-07
2.13329e-06
1.61647e-07
2.13357e-06
9.28128e-08
2.16381e-06
1.06283e-06
2.15366e-06
-1.07326e-07
2.18013e-06
5.99313e-07
2.16359e-06
-1.84073e-07
2.16139e-06
-2.91609e-07
2.1467e-06
-2.57959e-07
2.13837e-06
-4.2152e-07
2.12632e-06
-2.62721e-07
2.11827e-06
-2.78764e-07
2.11357e-06
-1.28101e-07
2.10513e-06
-3.89791e-08
7.04898e-08
2.10762e-06
2.25085e-06
4.3671e-07
2.24408e-06
-5.18916e-07
2.25945e-06
8.7033e-07
2.25036e-06
-4.33702e-07
2.24776e-06
-9.93022e-08
2.23445e-06
-3.56098e-07
2.23612e-06
1.59986e-07
2.23569e-06
9.32341e-08
2.26748e-06
1.03104e-06
2.25594e-06
-9.57796e-08
2.28402e-06
5.71231e-07
2.26614e-06
-1.66196e-07
2.26521e-06
-2.90673e-07
2.24944e-06
-2.42195e-07
2.24157e-06
-4.13651e-07
2.22954e-06
-2.50687e-07
2.21948e-06
-2.68708e-07
2.21569e-06
-1.24311e-07
2.20536e-06
-2.8649e-08
6.79794e-08
2.20787e-06
2.35861e-06
4.31977e-07
2.35097e-06
-5.11279e-07
2.36781e-06
8.53496e-07
2.35797e-06
-4.23863e-07
2.3556e-06
-9.69318e-08
2.34114e-06
-3.41639e-07
2.34397e-06
1.5715e-07
2.34247e-06
9.47355e-08
2.37566e-06
9.97849e-07
2.36279e-06
-8.29033e-08
2.39239e-06
5.41624e-07
2.37345e-06
-1.47255e-07
2.37359e-06
-2.90809e-07
2.35705e-06
-2.25655e-07
2.34917e-06
-4.05775e-07
2.33787e-06
-2.39382e-07
2.32553e-06
-2.56372e-07
2.32311e-06
-1.21892e-07
2.31171e-06
-1.72499e-08
6.62506e-08
2.31344e-06
2.47154e-06
4.26828e-07
2.46292e-06
-5.02658e-07
2.48124e-06
8.35176e-07
2.47062e-06
-4.13243e-07
2.46849e-06
-9.4797e-08
2.45282e-06
-3.25967e-07
2.45704e-06
1.52926e-07
2.45432e-06
9.74544e-08
2.48883e-06
9.63343e-07
2.4747e-06
-6.87734e-08
2.50566e-06
5.10659e-07
2.4859e-06
-1.27493e-07
2.48685e-06
-2.91757e-07
2.46989e-06
-2.08696e-07
2.46145e-06
-3.97333e-07
2.45149e-06
-2.29427e-07
2.43669e-06
-2.41575e-07
2.43563e-06
-1.2083e-07
2.42411e-06
-5.72784e-09
6.59873e-08
2.42437e-06
2.5899e-06
4.2122e-07
2.58024e-06
-4.92997e-07
2.60003e-06
8.15391e-07
2.58853e-06
-4.01749e-07
2.58677e-06
-9.30298e-08
2.56983e-06
-3.09031e-07
2.57553e-06
1.47227e-07
2.57158e-06
1.014e-07
2.60735e-06
9.27573e-07
2.59208e-06
-5.34978e-08
2.62415e-06
4.7859e-07
2.60382e-06
-1.07165e-07
2.60524e-06
-2.93175e-07
2.5883e-06
-1.91757e-07
2.57866e-06
-3.87697e-07
2.57057e-06
-2.21332e-07
2.5534e-06
-2.24407e-07
2.55316e-06
-1.20589e-07
2.54255e-06
4.87947e-09
6.76684e-08
2.54087e-06
2.71394e-06
4.15112e-07
2.70322e-06
-4.82276e-07
2.72443e-06
7.94179e-07
2.71194e-06
-3.89258e-07
2.71073e-06
-9.18259e-08
2.69251e-06
-2.90807e-07
2.69967e-06
1.40067e-07
2.69456e-06
1.06511e-07
2.73154e-06
8.90595e-07
2.71527e-06
-3.72364e-08
2.74812e-06
4.4574e-07
2.72753e-06
-8.65706e-08
2.72901e-06
-2.94654e-07
2.71259e-06
-1.75338e-07
2.70113e-06
-3.76236e-07
2.69521e-06
-2.15408e-07
2.67608e-06
-2.05283e-07
2.67583e-06
-1.20335e-07
2.66704e-06
1.36685e-08
7.13939e-08
2.66331e-06
2.84391e-06
4.08469e-07
2.83213e-06
-4.70492e-07
2.85473e-06
7.71574e-07
2.84112e-06
-3.75642e-07
2.84068e-06
-9.13893e-08
2.82117e-06
-2.71297e-07
2.8297e-06
1.31533e-07
2.82354e-06
1.12679e-07
2.86162e-06
8.52511e-07
2.8446e-06
-2.02191e-08
2.87785e-06
4.12493e-07
2.85733e-06
-6.60521e-08
2.85842e-06
-2.9574e-07
2.84305e-06
-1.59971e-07
2.82922e-06
-3.62407e-07
2.82552e-06
-2.11703e-07
2.80515e-06
-1.84921e-07
2.80388e-06
-1.19057e-07
2.79767e-06
1.9878e-08
7.69025e-08
2.79216e-06
2.9801e-06
4.01264e-07
2.96725e-06
-4.5764e-07
2.99123e-06
7.47591e-07
2.97637e-06
-3.60782e-07
2.97687e-06
-9.18909e-08
2.95611e-06
-2.50536e-07
2.96589e-06
1.21755e-07
2.95881e-06
1.19754e-07
2.99783e-06
8.13495e-07
2.98037e-06
-2.75489e-09
3.01357e-06
3.79284e-07
2.99351e-06
-4.59914e-08
2.99375e-06
-2.95976e-07
2.97991e-06
-1.46134e-07
2.96338e-06
-3.45877e-07
2.96162e-06
-2.09943e-07
2.94091e-06
-1.64204e-07
2.93771e-06
-1.15857e-07
2.93447e-06
2.3112e-08
8.35532e-08
2.92782e-06
3.1228e-06
3.93474e-07
3.10886e-06
-4.43708e-07
3.13422e-06
7.22234e-07
3.11803e-06
-3.44588e-07
3.11958e-06
-9.34467e-08
3.09763e-06
-2.28586e-07
3.1085e-06
1.10889e-07
3.1007e-06
1.2755e-07
3.14039e-06
7.73805e-07
3.12286e-06
1.47734e-08
3.15556e-06
3.4659e-07
3.13636e-06
-2.67901e-08
3.13531e-06
-2.9493e-07
3.1234e-06
-1.3422e-07
3.10408e-06
-3.26564e-07
3.10372e-06
-2.09582e-07
3.08357e-06
-1.44053e-07
3.07788e-06
-1.10161e-07
3.07752e-06
2.34709e-08
9.04432e-08
3.07063e-06
3.2723e-06
3.85083e-07
3.25726e-06
-4.28671e-07
3.284e-06
6.95494e-07
3.26642e-06
-3.27001e-07
3.26908e-06
-9.61136e-08
3.24604e-06
-2.05545e-07
3.25782e-06
9.91084e-08
3.24954e-06
1.35832e-07
3.28955e-06
7.33795e-07
3.27242e-06
3.19068e-08
3.30409e-06
3.14919e-07
3.28614e-06
-8.83872e-09
3.28344e-06
-2.92233e-07
3.2737e-06
-1.24481e-07
3.25178e-06
-3.04645e-07
3.25208e-06
-2.09879e-07
3.23338e-06
-1.25351e-07
3.22494e-06
-1.01728e-07
3.22691e-06
2.15056e-08
9.65547e-08
3.2208e-06
3.42894e-06
3.76073e-07
3.41277e-06
-4.12495e-07
3.4409e-06
6.67365e-07
3.42189e-06
-3.07999e-07
3.42568e-06
-9.98957e-08
3.40167e-06
-1.81545e-07
3.41416e-06
8.66194e-08
3.40568e-06
1.44311e-07
3.44558e-06
6.93904e-07
3.42935e-06
4.81309e-08
3.4595e-06
2.84768e-07
3.44313e-06
7.53884e-09
3.43851e-06
-2.87622e-07
3.43103e-06
-1.16996e-07
3.40691e-06
-2.80531e-07
3.40704e-06
-2.10006e-07
3.3905e-06
-1.0881e-07
3.37944e-06
-9.06707e-08
3.38288e-06
1.80717e-08
1.0094e-07
3.37849e-06
3.59305e-06
3.66431e-07
3.57571e-06
-3.95147e-07
3.60522e-06
6.37847e-07
3.58482e-06
-2.87597e-07
3.58968e-06
-1.04749e-07
3.56489e-06
-1.56763e-07
3.57784e-06
7.36777e-08
3.56952e-06
1.52631e-07
3.60877e-06
6.54651e-07
3.59399e-06
6.29147e-08
3.62218e-06
2.56574e-07
3.60759e-06
2.21243e-08
3.60094e-06
-2.80966e-07
3.59561e-06
-1.11669e-07
3.56986e-06
-2.54783e-07
3.56902e-06
-2.09165e-07
3.55513e-06
-9.49208e-08
3.54188e-06
-7.74176e-08
3.54574e-06
1.42139e-08
1.02848e-07
3.54383e-06
3.76499e-06
3.56143e-07
3.74644e-06
-3.76598e-07
3.77733e-06
6.06959e-07
3.75559e-06
-2.65853e-07
3.76142e-06
-1.10583e-07
3.73609e-06
-1.31434e-07
3.74917e-06
6.06e-08
3.74143e-06
1.60368e-07
3.77948e-06
6.166e-07
3.76662e-06
7.57795e-08
3.79257e-06
2.30622e-07
3.77981e-06
3.48826e-08
3.77114e-06
-2.72293e-07
3.76774e-06
-1.08269e-07
3.74098e-06
-2.28023e-07
3.7385e-06
-2.06681e-07
3.72753e-06
-8.39537e-08
3.71268e-06
-6.25685e-08
3.71592e-06
1.0972e-08
1.01877e-07
3.71689e-06
3.94513e-06
3.45199e-07
3.92537e-06
-3.56834e-07
3.95758e-06
5.74744e-07
3.9346e-06
-2.42867e-07
3.94127e-06
-1.17256e-07
3.91569e-06
-1.05851e-07
3.92852e-06
4.77693e-08
3.92185e-06
1.67039e-07
3.95811e-06
5.80337e-07
3.94755e-06
8.63348e-08
3.97115e-06
2.07021e-07
3.96009e-06
4.5948e-08
3.94955e-06
-2.61751e-07
3.94774e-06
-1.06463e-07
3.92063e-06
-2.00915e-07
3.91593e-06
-2.01976e-07
3.90793e-06
-7.59568e-08
3.89231e-06
-4.69443e-08
3.8939e-06
9.37452e-09
9.79974e-08
3.89778e-06
4.13385e-06
3.33596e-07
4.11288e-06
-3.35864e-07
4.14634e-06
5.41285e-07
4.12227e-06
-2.1879e-07
4.12958e-06
-1.24564e-07
4.1041e-06
-8.03801e-08
4.11625e-06
3.56257e-08
4.11116e-06
1.72122e-07
4.14513e-06
5.4637e-07
4.13707e-06
9.43957e-08
4.15841e-06
1.85679e-07
4.1488e-06
5.55651e-08
4.13653e-06
-2.49486e-07
4.13604e-06
-1.05972e-07
4.10917e-06
-1.74049e-07
4.10188e-06
-1.94683e-07
4.09659e-06
-7.06687e-08
4.08115e-06
-3.14988e-08
4.08035e-06
1.01683e-08
9.17572e-08
4.08659e-06
4.33156e-06
3.21336e-07
4.30943e-06
-3.13728e-07
4.344e-06
5.06709e-07
4.31905e-06
-1.93836e-07
4.32672e-06
-1.32239e-07
4.30179e-06
-5.54514e-08
4.31276e-06
2.46582e-08
4.3098e-06
1.75081e-07
4.34108e-06
5.15093e-07
4.33545e-06
1.00029e-07
4.3548e-06
1.6632e-07
4.34636e-06
6.40061e-08
4.33248e-06
-2.35604e-07
4.33305e-06
-1.06544e-07
4.30697e-06
-1.47968e-07
4.29688e-06
-1.84589e-07
4.29385e-06
-6.76369e-08
4.27953e-06
-1.71774e-08
4.27604e-06
1.36574e-08
8.42463e-08
4.28355e-06
4.53867e-06
3.08436e-07
4.51545e-06
-2.90504e-07
4.55095e-06
4.71206e-07
4.5254e-06
-1.68286e-07
4.53309e-06
-1.39929e-07
4.50921e-06
-3.15724e-08
4.51848e-06
1.53901e-08
4.51808e-06
1.75477e-07
4.54653e-06
4.86644e-07
4.54298e-06
1.03581e-07
4.56077e-06
1.48533e-07
4.55326e-06
7.15149e-08
4.53781e-06
-2.20159e-07
4.53921e-06
-1.07945e-07
4.51443e-06
-1.23186e-07
4.50152e-06
-1.71674e-07
4.50005e-06
-6.61658e-08
4.48772e-06
-4.8536e-09
4.48177e-06
1.96057e-08
7.69096e-08
4.48911e-06
4.75563e-06
2.94923e-07
4.73143e-06
-2.6631e-07
4.76761e-06
4.35032e-07
4.74181e-06
-1.42493e-07
4.74911e-06
-1.47221e-07
4.72682e-06
-9.28336e-09
4.73388e-06
8.33104e-09
4.73631e-06
1.73046e-07
4.76206e-06
4.60891e-07
4.76006e-06
1.05581e-07
4.7767e-06
1.31894e-07
4.76998e-06
7.82361e-08
4.753e-06
-2.03176e-07
4.75491e-06
-1.09853e-07
4.73199e-06
-1.00275e-07
4.71636e-06
-1.56039e-07
4.71567e-06
-6.54768e-08
4.70592e-06
4.89378e-09
4.69825e-06
2.72819e-08
7.10618e-08
4.70409e-06
4.98288e-06
2.80844e-07
4.95788e-06
-2.4131e-07
4.99439e-06
3.9852e-07
4.96878e-06
-1.16888e-07
4.97522e-06
-1.53655e-07
4.95508e-06
1.08556e-08
4.95947e-06
3.94193e-09
4.96478e-06
1.67738e-07
4.98823e-06
4.37431e-07
4.98714e-06
1.06672e-07
5.00302e-06
1.16015e-07
4.99704e-06
8.42151e-08
4.97852e-06
-1.84654e-07
4.9806e-06
-1.11934e-07
4.96002e-06
-7.96967e-08
4.942e-06
-1.38015e-07
4.94131e-06
-6.47877e-08
4.93428e-06
1.19214e-08
4.92599e-06
3.55771e-08
6.76022e-08
4.92945e-06
5.2209e-06
2.6626e-07
5.19531e-06
-2.15716e-07
5.23174e-06
3.62084e-07
5.20681e-06
-9.19568e-08
5.21192e-06
-1.58764e-07
5.19445e-06
2.83327e-08
5.19584e-06
2.54388e-09
5.20381e-06
1.59767e-07
5.22556e-06
4.15683e-07
5.2248e-06
1.07437e-07
5.2401e-06
1.00713e-07
5.23497e-06
8.93433e-08
5.21493e-06
-1.64616e-07
5.21676e-06
-1.13762e-07
5.19892e-06
-6.18505e-08
5.17901e-06
-1.1811e-07
5.17757e-06
-6.33504e-08
5.17315e-06
1.63443e-08
5.16525e-06
4.34789e-08
6.66854e-08
5.16617e-06
5.4702e-06
2.51248e-07
5.44427e-06
-1.89787e-07
5.48014e-06
3.26219e-07
5.45641e-06
-6.82337e-08
5.45976e-06
-1.62111e-07
5.44538e-06
4.27167e-08
5.44375e-06
4.16686e-09
5.45388e-06
1.49639e-07
5.47458e-06
3.94987e-07
5.4736e-06
1.08417e-07
5.48835e-06
8.59552e-08
5.48428e-06
9.34141e-08
5.46278e-06
-1.43116e-07
5.46388e-06
-1.14858e-07
5.44908e-06
-4.70508e-08
5.42789e-06
-9.69195e-08
5.42516e-06
-6.06179e-08
5.42297e-06
1.85279e-08
5.41617e-06
5.02792e-08
6.77906e-08
5.41507e-06
5.73131e-06
2.359e-07
5.70534e-06
-1.63822e-07
5.74006e-06
2.91505e-07
5.71807e-06
-4.62456e-08
5.71931e-06
-1.63352e-07
5.70829e-06
5.37403e-08
5.70402e-06
8.43704e-09
5.71558e-06
1.38071e-07
5.73577e-06
3.74798e-07
5.73421e-06
1.09974e-07
5.74821e-06
7.19583e-08
5.74545e-06
9.61764e-08
5.72267e-06
-1.20338e-07
5.72248e-06
-1.14665e-07
5.71088e-06
-3.54497e-08
5.68919e-06
-7.52302e-08
5.6847e-06
-5.61329e-08
5.68432e-06
1.89158e-08
5.679e-06
5.55976e-08
7.00636e-08
5.67672e-06
6.00477e-06
2.20318e-07
5.97911e-06
-1.38153e-07
6.01203e-06
2.58584e-07
5.99224e-06
-2.6463e-08
5.99121e-06
-1.62316e-07
5.98357e-06
6.13811e-08
5.97728e-06
1.47248e-08
5.98968e-06
1.25676e-07
6.00975e-06
3.54722e-07
6.0073e-06
1.1243e-07
6.02013e-06
5.91277e-08
6.01886e-06
9.74406e-08
5.99516e-06
-9.66348e-08
5.99312e-06
-1.12629e-07
5.98475e-06
-2.70827e-08
5.96345e-06
-5.39258e-08
5.95691e-06
-4.95937e-08
5.95778e-06
1.80448e-08
5.95412e-06
5.9256e-08
7.2705e-08
5.95148e-06
6.2912e-06
2.04608e-07
6.26616e-06
-1.13112e-07
6.29675e-06
2.27987e-07
6.2794e-06
-9.10693e-09
6.27611e-06
-1.59026e-07
6.27163e-06
6.58546e-08
6.26395e-06
2.2405e-08
6.27673e-06
1.12905e-07
6.29693e-06
3.34522e-07
6.29334e-06
1.16013e-07
6.30447e-06
4.80043e-08
6.3048e-06
9.71083e-08
6.28082e-06
-7.26524e-08
6.27642e-06
-1.08231e-07
6.27118e-06
-2.18405e-08
6.25115e-06
-3.39049e-08
6.24248e-06
-4.09189e-08
6.24404e-06
1.6487e-08
6.24211e-06
6.11788e-08
7.51968e-08
6.23962e-06
6.5912e-06
1.88872e-07
6.56709e-06
-8.89989e-08
6.59524e-06
1.99839e-07
6.58005e-06
6.08195e-09
6.57463e-06
-1.53605e-07
6.57294e-06
6.75399e-08
6.56405e-06
3.12967e-08
6.57636e-06
1.006e-07
6.59674e-06
3.1414e-07
6.59228e-06
1.20476e-07
6.60141e-06
3.88747e-08
6.60355e-06
9.49678e-08
6.58022e-06
-4.93243e-08
6.57323e-06
-1.01242e-07
6.57065e-06
-1.92625e-08
6.55278e-06
-1.60367e-08
6.54217e-06
-3.03033e-08
6.54374e-06
1.49135e-08
6.54356e-06
6.1363e-08
7.72067e-08
6.54155e-06
6.90545e-06
1.73209e-07
6.88253e-06
-6.60769e-08
6.90827e-06
1.74105e-07
6.89489e-06
1.94604e-08
6.88734e-06
-1.46056e-07
6.88814e-06
6.67428e-08
6.87784e-06
4.15871e-08
6.88835e-06
9.00967e-08
6.90955e-06
2.92939e-07
6.90469e-06
1.25339e-07
6.91152e-06
3.2043e-08
6.91572e-06
9.07664e-08
6.89404e-06
-2.76445e-08
6.88452e-06
-9.17262e-08
6.88381e-06
-1.85529e-08
6.86879e-06
-1.00873e-09
6.85677e-06
-1.82842e-08
6.85758e-06
1.40987e-08
6.85904e-06
5.99023e-08
7.84669e-08
6.85778e-06
7.23463e-06
1.57711e-07
7.21314e-06
-4.45788e-08
7.23648e-06
1.50763e-07
7.22481e-06
3.11313e-08
7.21477e-06
-1.36019e-07
7.21793e-06
6.35786e-08
7.20739e-06
5.21264e-08
7.21531e-06
8.21859e-08
7.23732e-06
2.70923e-07
7.2325e-06
1.30166e-07
7.23631e-06
2.82236e-08
7.24231e-06
8.4775e-08
7.22303e-06
-8.36714e-09
7.2113e-06
-7.99979e-08
7.21142e-06
-1.86721e-08
7.19972e-06
1.06901e-08
7.18696e-06
-5.51895e-09
7.18638e-06
1.46708e-08
7.18915e-06
5.71306e-08
7.86969e-08
7.18893e-06
7.57946e-06
1.42475e-07
7.55963e-06
-2.47451e-08
7.58054e-06
1.29852e-07
7.57074e-06
4.09279e-08
7.55793e-06
-1.23204e-07
7.56341e-06
5.81003e-08
7.55338e-06
6.21472e-08
7.55865e-06
7.69211e-08
7.58095e-06
2.48619e-07
7.57662e-06
1.34499e-07
7.57732e-06
2.75242e-08
7.58435e-06
7.77493e-08
7.56788e-06
8.1018e-09
7.55439e-06
-6.65147e-08
7.55451e-06
-1.87932e-08
7.54601e-06
1.91924e-08
7.53342e-06
7.07026e-09
7.53114e-06
1.69525e-08
7.53453e-06
5.37415e-08
7.76049e-08
7.53562e-06
7.9407e-06
1.27591e-07
7.92267e-06
-6.7162e-09
7.94131e-06
1.11207e-07
7.9335e-06
4.8742e-08
7.91858e-06
-1.08291e-07
7.92634e-06
5.03495e-08
7.91803e-06
7.04536e-08
7.92112e-06
7.38317e-08
7.941e-06
2.28739e-07
7.93742e-06
1.38081e-07
7.93572e-06
2.92257e-08
7.94283e-06
7.0634e-08
7.92925e-06
2.16783e-08
7.9146e-06
-5.18631e-08
7.91401e-06
-1.81961e-08
7.9084e-06
2.47975e-08
7.89674e-06
1.87314e-08
7.89281e-06
2.08815e-08
7.89604e-06
5.05135e-08
7.51584e-08
7.89848e-06
8.31912e-06
1.13149e-07
8.30294e-06
9.46772e-09
8.31999e-06
9.4154e-08
8.31417e-06
5.45631e-08
8.2983e-06
-9.24214e-08
8.30785e-06
4.08001e-08
8.30152e-06
7.67803e-08
8.29914e-06
7.62167e-08
8.31702e-06
2.10853e-07
8.31555e-06
1.39555e-07
8.31226e-06
3.25158e-08
8.31879e-06
6.41066e-08
8.30783e-06
3.26322e-08
8.29267e-06
-3.67009e-08
8.29086e-06
-1.63852e-08
8.28764e-06
2.80175e-08
8.27752e-06
2.88567e-08
8.2723e-06
2.60999e-08
8.27474e-06
4.80723e-08
7.16929e-08
8.2782e-06
8.71554e-06
9.92699e-08
8.70136e-06
2.36448e-08
8.71679e-06
7.87242e-08
8.71488e-06
5.64721e-08
8.6952e-06
-7.27357e-08
8.69721e-06
3.87884e-08
8.69244e-06
8.15527e-08
8.69136e-06
7.72998e-08
8.7105e-06
1.91709e-07
8.71183e-06
1.38222e-07
8.70769e-06
3.66535e-08
8.71306e-06
5.87457e-08
8.70444e-06
4.12456e-08
8.6893e-06
-2.15639e-08
8.68601e-06
-1.30887e-08
8.68455e-06
2.94735e-08
8.6763e-06
3.71094e-08
8.67042e-06
3.19816e-08
8.6717e-06
4.67937e-08
6.77779e-08
8.67561e-06
9.1308e-06
8.60885e-08
9.11883e-06
3.56116e-08
9.13132e-06
6.62387e-08
9.13015e-06
5.76388e-08
9.1081e-06
-5.06815e-08
9.11011e-06
3.67792e-08
9.10906e-06
8.26005e-08
9.10729e-06
7.90702e-08
9.12379e-06
1.75212e-07
9.12672e-06
1.35289e-07
9.12231e-06
4.1062e-08
9.12649e-06
5.45667e-08
9.11995e-06
4.77844e-08
9.10533e-06
-6.94039e-09
9.10049e-06
-8.25266e-09
9.1001e-06
2.9863e-08
9.09394e-06
4.32724e-08
9.08793e-06
3.79943e-08
9.08804e-06
4.66809e-08
6.40135e-08
9.0918e-06
9.5658e-06
7.37499e-08
9.55584e-06
4.55659e-08
9.56543e-06
5.66576e-08
9.56712e-06
5.5942e-08
9.54573e-06
-2.92937e-08
9.54474e-06
3.77737e-08
9.54519e-06
8.21511e-08
9.54367e-06
8.05896e-08
9.55761e-06
1.61276e-07
9.56125e-06
1.3165e-07
9.55687e-06
4.54373e-08
9.56003e-06
5.14018e-08
9.55529e-06
5.25323e-08
9.54161e-06
6.73949e-09
9.53537e-06
-2.02067e-09
9.53534e-06
2.98986e-08
9.53125e-06
4.7357e-08
9.5256e-06
4.36538e-08
9.52473e-06
4.75428e-08
6.08127e-08
9.52793e-06
1.00215e-05
6.24227e-08
1.00138e-05
5.32382e-08
1.00206e-05
4.98765e-08
1.00251e-05
5.13973e-08
1.0005e-05
-9.1654e-09
1.00007e-05
4.20328e-08
1.00017e-05
8.11971e-08
1.0001e-05
8.12482e-08
1.00129e-05
1.49448e-07
1.00166e-05
1.27946e-07
1.00122e-05
4.97675e-08
1.00145e-05
4.90982e-08
1.00113e-05
5.57493e-08
9.99907e-06
1.89854e-08
9.99164e-06
5.40423e-09
9.99143e-06
3.01129e-08
9.98912e-06
4.96681e-08
9.98428e-06
4.84877e-08
9.98271e-06
4.91194e-08
5.83962e-08
9.98512e-06
1.04988e-05
5.22536e-08
1.04939e-05
5.81905e-08
1.04976e-05
4.61481e-08
1.05043e-05
4.46744e-08
1.04867e-05
8.4477e-09
1.04793e-05
4.94612e-08
1.04796e-05
8.08428e-08
1.048e-05
8.08709e-08
1.04904e-05
1.39094e-07
1.04939e-05
1.24415e-07
1.04895e-05
5.41763e-08
1.0491e-05
4.76157e-08
1.04891e-05
5.76242e-08
1.04784e-05
2.96349e-08
1.04703e-05
1.34927e-08
1.04695e-05
3.09705e-08
1.04685e-05
5.064e-08
1.04648e-05
5.22143e-08
1.04629e-05
5.10228e-08
5.6807e-08
1.04645e-05
1.09989e-05
4.33661e-08
1.09968e-05
6.03114e-08
1.09978e-05
4.5148e-08
1.10055e-05
3.69186e-08
1.09912e-05
2.27533e-08
1.09813e-05
5.93863e-08
1.09804e-05
8.17779e-08
1.09815e-05
7.97036e-08
1.0991e-05
1.29611e-07
1.09943e-05
1.21108e-07
1.09897e-05
5.87591e-08
1.09904e-05
4.69813e-08
1.09896e-05
5.84526e-08
1.09807e-05
3.85003e-08
1.09724e-05
2.17439e-08
1.09707e-05
3.26747e-08
1.09706e-05
5.07606e-08
1.09681e-05
5.47453e-08
1.09662e-05
5.29086e-08
5.58985e-08
1.09671e-05
1.15229e-05
3.58296e-08
1.15234e-05
5.98077e-08
1.15223e-05
4.62577e-08
1.15295e-05
2.96757e-08
1.15189e-05
3.34292e-08
1.15078e-05
7.04605e-08
1.15053e-05
8.42325e-08
1.15067e-05
7.82877e-08
1.15157e-05
1.20677e-07
1.1519e-05
1.17769e-07
1.15143e-05
6.34814e-08
1.1514e-05
4.73271e-08
1.15139e-05
5.85455e-08
1.15069e-05
4.55065e-08
1.14989e-05
2.97162e-08
1.14964e-05
3.51908e-08
1.14966e-05
5.05249e-08
1.14952e-05
5.61664e-08
1.14936e-05
5.4492e-08
5.54729e-08
1.1494e-05
1.2072e-05
2.96869e-08
1.20746e-05
5.71253e-08
1.20719e-05
4.90091e-08
1.2077e-05
2.45253e-08
1.20701e-05
4.03651e-08
1.20597e-05
8.08215e-08
1.20558e-05
8.81438e-08
1.20569e-05
7.72578e-08
1.20654e-05
1.12167e-07
1.2069e-05
1.14188e-07
1.20643e-05
6.81034e-08
1.20629e-05
4.87687e-08
1.20632e-05
5.82272e-08
1.20579e-05
5.07948e-08
1.20507e-05
3.69704e-08
1.20475e-05
3.83326e-08
1.20477e-05
5.03181e-08
1.20472e-05
5.66656e-08
1.20461e-05
5.5595e-08
5.5278e-08
1.20463e-05
1.26473e-05
2.49391e-08
1.26512e-05
5.32785e-08
1.26467e-05
5.35132e-08
1.26491e-05
2.21408e-08
1.26463e-05
4.3093e-08
1.26382e-05
8.89209e-08
1.26332e-05
9.31838e-08
1.26333e-05
7.71718e-08
1.26412e-05
1.04265e-07
1.26452e-05
1.10164e-07
1.2641e-05
7.23424e-08
1.26385e-05
5.11993e-08
1.26389e-05
5.78943e-08
1.26351e-05
5.45472e-08
1.26289e-05
4.32372e-08
1.26254e-05
4.17853e-08
1.26254e-05
5.03601e-08
1.26255e-05
5.65431e-08
1.26249e-05
5.61363e-08
5.51087e-08
1.26251e-05
1.32504e-05
2.15159e-08
1.32542e-05
4.94525e-08
1.3249e-05
5.87054e-08
1.32482e-05
2.29726e-08
1.32491e-05
4.21709e-08
1.32442e-05
9.3775e-08
1.32386e-05
9.87654e-08
1.32374e-05
7.83973e-08
1.32444e-05
9.72642e-08
1.32489e-05
1.0568e-07
1.32453e-05
7.58977e-08
1.32422e-05
5.43042e-08
1.32422e-05
5.79087e-08
1.32397e-05
5.70419e-08
1.32346e-05
4.83614e-08
1.32311e-05
4.52706e-08
1.32308e-05
5.07043e-08
1.32312e-05
5.61041e-08
1.32312e-05
5.61241e-08
5.48079e-08
1.32315e-05
1.38825e-05
1.91734e-08
1.38871e-05
4.48388e-08
1.38821e-05
6.37732e-08
1.38778e-05
2.72482e-08
1.38799e-05
4.00835e-08
1.38786e-05
9.50248e-08
1.38734e-05
1.04004e-07
1.38708e-05
8.09926e-08
1.38765e-05
9.1582e-08
1.38813e-05
1.00841e-07
1.38787e-05
7.85102e-08
1.38752e-05
5.77737e-08
1.38747e-05
5.83865e-08
1.38731e-05
5.86838e-08
1.38691e-05
5.23231e-08
1.38659e-05
4.8528e-08
1.38653e-05
5.12852e-08
1.38659e-05
5.55185e-08
1.38663e-05
5.57195e-08
5.42382e-08
1.38669e-05
1.45452e-05
1.76478e-08
1.45494e-05
4.06054e-08
1.4546e-05
6.72315e-08
1.45394e-05
3.38387e-08
1.45405e-05
3.8954e-08
1.45425e-05
9.30337e-08
1.45386e-05
1.07942e-07
1.45348e-05
8.47042e-08
1.45388e-05
8.75841e-08
1.45438e-05
9.58907e-08
1.45422e-05
8.00843e-08
1.45388e-05
6.12331e-08
1.45379e-05
5.92958e-08
1.45367e-05
5.98552e-08
1.45338e-05
5.5216e-08
1.4531e-05
5.13098e-08
1.45303e-05
5.20176e-08
1.45309e-05
5.48753e-08
1.45315e-05
5.50868e-08
5.33941e-08
1.45324e-05
1.52399e-05
1.66521e-08
1.52438e-05
3.66667e-08
1.5242e-05
6.90874e-08
1.52341e-05
4.17482e-08
1.52331e-05
3.99212e-08
1.52372e-05
8.89248e-08
1.52353e-05
1.09849e-07
1.52311e-05
8.89351e-08
1.52333e-05
8.53721e-08
1.52379e-05
9.13018e-08
1.52373e-05
8.06191e-08
1.52342e-05
6.43182e-08
1.5233e-05
6.0577e-08
1.52321e-05
6.07309e-08
1.523e-05
5.72811e-08
1.52278e-05
5.3496e-08
1.52271e-05
5.2762e-08
1.52277e-05
5.42284e-08
1.52286e-05
5.4261e-08
5.24089e-08
1.52295e-05
1.5968e-05
1.59373e-08
1.59713e-05
3.34332e-08
1.5971e-05
6.93513e-08
1.59629e-05
4.98608e-08
1.59596e-05
4.32096e-08
1.59644e-05
8.41312e-08
1.59648e-05
1.09482e-07
1.59608e-05
9.29077e-08
1.59614e-05
8.47841e-08
1.59651e-05
8.75676e-08
1.59655e-05
8.0282e-08
1.5963e-05
6.67817e-08
1.59616e-05
6.20184e-08
1.59609e-05
6.14222e-08
1.59594e-05
5.87122e-08
1.59578e-05
5.51091e-08
1.59572e-05
5.33709e-08
1.59578e-05
5.3609e-08
1.59588e-05
5.3265e-08
5.1354e-08
1.59599e-05
1.67312e-05
1.53412e-08
1.67331e-05
3.15033e-08
1.67343e-05
6.8194e-08
1.67271e-05
5.70619e-08
1.67219e-05
4.83594e-08
1.67261e-05
8.00147e-08
1.67285e-05
1.0706e-07
1.67255e-05
9.59052e-08
1.67248e-05
8.5481e-08
1.67275e-05
8.48846e-08
1.67283e-05
7.9483e-08
1.67265e-05
6.85089e-08
1.67252e-05
6.33484e-08
1.67246e-05
6.20468e-08
1.67237e-05
5.95938e-08
1.67226e-05
5.62246e-08
1.67222e-05
5.37753e-08
1.67228e-05
5.2972e-08
1.67239e-05
5.21472e-08
5.02004e-08
1.67251e-05
1.75309e-05
1.47634e-08
1.7532e-05
3.04256e-08
1.75337e-05
6.64913e-08
1.75279e-05
6.28795e-08
1.75216e-05
5.461e-08
1.75242e-05
7.7415e-08
1.7528e-05
1.0326e-07
1.75264e-05
9.75225e-08
1.7525e-05
8.68699e-08
1.75266e-05
8.32846e-08
1.75275e-05
7.86119e-08
1.75265e-05
6.95722e-08
1.75254e-05
6.43766e-08
1.7525e-05
6.2518e-08
1.75245e-05
6.00802e-08
1.75238e-05
5.68471e-08
1.75236e-05
5.39802e-08
1.75243e-05
5.22658e-08
1.75255e-05
5.09739e-08
4.89239e-08
1.75268e-05
1.83689e-05
1.41861e-08
1.83692e-05
3.01313e-08
1.8371e-05
6.46805e-08
1.83668e-05
6.71384e-08
1.83603e-05
6.10895e-08
1.83612e-05
7.65214e-08
1.83654e-05
9.90861e-08
1.83652e-05
9.76793e-08
1.83638e-05
8.82601e-08
1.83644e-05
8.26974e-08
1.83651e-05
7.78982e-08
1.83645e-05
7.01722e-08
1.83639e-05
6.50084e-08
1.83637e-05
6.27371e-08
1.83635e-05
6.02626e-08
1.83633e-05
5.70514e-08
1.83633e-05
5.39192e-08
1.83641e-05
5.14959e-08
1.83654e-05
4.97171e-08
4.75557e-08
1.83667e-05
1.92469e-05
1.36324e-08
1.92467e-05
3.03259e-08
1.92482e-05
6.31823e-08
1.92454e-05
7.00143e-08
1.92394e-05
6.70726e-08
1.92388e-05