/*--------------------------------*- C++ -*----------------------------------*\
| =========                 |                                                 |
| \\      /  F ield         | OpenFOAM: The Open Source CFD Toolbox           |
|  \\    /   O peration     | Version:  3.0.1                                 |
|   \\  /    A nd           | Web:      www.OpenFOAM.org                      |
|    \\/     M anipulation  |                                                 |
\*---------------------------------------------------------------------------*/
FoamFile
{
    version     2.0;
    format      ascii;
    class       volVectorField;
    location    "3.6";
    object      U;
}
// * * * * * * * * * * * * * * * * * * * * * * * * * * * * * * * * * * * * * //

dimensions      [0 1 -1 0 0 0 0];

internalField   nonuniform List<vector> 
9600
(
(0.928153 0.00464271 0)
(1.06838 -0.00742098 0)
(0.922873 0.0127719 0)
(1.08944 -0.00933885 0)
(0.831045 -0.00254684 0)
(1.09065 -0.000728146 0)
(0.970235 0.00140258 0)
(1.02436 -0.00373701 0)
(0.919525 0.0264217 0)
(1.06504 -0.00884469 0)
(0.811158 0.0202818 0)
(1.10094 -0.00661964 0)
(0.769276 -0.00886197 0)
(1.12871 -0.00681345 0)
(0.783865 -0.0170457 0)
(1.13082 -0.00527972 0)
(0.842606 -0.0124243 0)
(1.12359 -0.00295109 0)
(0.860981 -0.00519684 0)
(1.12181 0.00201342 0)
(0.932864 0.0046175 0)
(1.06108 -0.00725907 0)
(0.926079 0.0124537 0)
(1.07858 -0.00832192 0)
(0.842128 -0.00277665 0)
(1.07754 -0.00228309 0)
(0.975345 0.00199221 0)
(1.01758 -0.00286255 0)
(0.924929 0.0257261 0)
(1.04922 -0.00684169 0)
(0.830813 0.0194232 0)
(1.06479 -0.00531525 0)
(0.820204 -0.00986652 0)
(1.0758 -0.00688004 0)
(0.856727 -0.017271 0)
(1.0676 -0.00673099 0)
(0.926572 -0.0119398 0)
(1.04314 -0.00383898 0)
(0.967734 -0.00420672 0)
(1.00743 0.000906172 0)
(0.942073 0.00461502 0)
(1.04997 -0.00710306 0)
(0.932649 0.0122039 0)
(1.06416 -0.00754376 0)
(0.865576 -0.00297045 0)
(1.05447 -0.00329065 0)
(0.985174 0.00254225 0)
(1.0065 -0.00223299 0)
(0.93383 0.0251594 0)
(1.02975 -0.00545866 0)
(0.863798 0.0187029 0)
(1.02977 -0.00513947 0)
(0.884813 -0.0102232 0)
(1.02176 -0.0076092 0)
(0.928201 -0.0169599 0)
(1.01049 -0.00832855 0)
(0.977984 -0.0113329 0)
(0.999943 -0.00497438 0)
(0.99249 -0.00362347 0)
(0.992488 0.00137764 0)
(0.954158 0.00463153 0)
(1.03772 -0.00694201 0)
(0.942133 0.0120304 0)
(1.04914 -0.00697027 0)
(0.896669 -0.00298033 0)
(1.02893 -0.00423775 0)
(0.996028 0.00290028 0)
(0.996848 -0.00159056 0)
(0.942859 0.0248397 0)
(1.01269 -0.00451462 0)
(0.899847 0.0184171 0)
(1.00677 -0.00535886 0)
(0.93457 -0.0100592 0)
(0.991008 -0.00846573 0)
(0.968059 -0.0166376 0)
(0.987607 -0.00941322 0)
(0.992038 -0.0112533 0)
(0.994861 -0.00521201 0)
(0.991651 -0.00341031 0)
(0.995246 0.00189513 0)
(0.966911 0.00465104 0)
(1.02642 -0.00676829 0)
(0.953389 0.0118771 0)
(1.03597 -0.00658183 0)
(0.927986 -0.00284298 0)
(1.00829 -0.00504933 0)
(1.00359 0.00308945 0)
(0.992096 -0.000873557 0)
(0.950811 0.0246196 0)
(1.00227 -0.00390263 0)
(0.930418 0.0182641 0)
(0.998117 -0.00570959 0)
(0.96456 -0.00980684 0)
(0.982511 -0.00914376 0)
(0.983671 -0.0164454 0)
(0.985367 -0.0100278 0)
(0.993781 -0.0113568 0)
(0.997697 -0.00528361 0)
(0.994372 -0.00319118 0)
(0.995483 0.0022133 0)
(0.978349 0.00466276 0)
(1.01729 -0.00659295 0)
(0.964942 0.0117363 0)
(1.02596 -0.00635375 0)
(0.953923 -0.00262272 0)
(0.995888 -0.00566407 0)
(1.00624 0.00314072 0)
(0.991447 -0.000151825 0)
(0.958665 0.0244539 0)
(0.999167 -0.00354855 0)
(0.95306 0.0180303 0)
(0.998675 -0.00601029 0)
(0.981325 -0.00958477 0)
(0.984299 -0.0095377 0)
(0.98892 -0.0163086 0)
(0.987539 -0.0104438 0)
(0.99399 -0.0114517 0)
(0.998185 -0.00551389 0)
(0.997654 -0.00299067 0)
(0.995999 0.00259529 0)
(0.987297 0.00466147 0)
(1.01063 -0.00642755 0)
(0.975521 0.0116048 0)
(1.01906 -0.00624139 0)
(0.972439 -0.00237404 0)
(0.9908 -0.0060623 0)
(1.00517 0.00309047 0)
(0.992171 0.000485993 0)
(0.967325 0.0242957 0)
(1.00102 -0.00335764 0)
(0.969275 0.0177231 0)
(1.00291 -0.00620757 0)
(0.99136 -0.00936385 0)
(0.988446 -0.00971256 0)
(0.991245 -0.0161497 0)
(0.988712 -0.0107496 0)
(0.99352 -0.0115476 0)
(0.996698 -0.0058035 0)
(0.998003 -0.00286494 0)
(0.996158 0.00302679 0)
(0.993528 0.00464704 0)
(1.00606 -0.00628105 0)
(0.984377 0.0114744 0)
(1.01444 -0.00619063 0)
(0.98425 -0.00213336 0)
(0.990191 -0.00627277 0)
(1.00256 0.00298706 0)
(0.992353 0.000989625 0)
(0.976428 0.0240856 0)
(1.00465 -0.00324229 0)
(0.981223 0.0173692 0)
(1.00762 -0.00629445 0)
(0.998039 -0.00912483 0)
(0.99239 -0.0097418 0)
(0.993096 -0.0159081 0)
(0.989054 -0.010943 0)
(0.992281 -0.0116677 0)
(0.994376 -0.00599632 0)
(0.996079 -0.00279958 0)
(0.994911 0.00336191 0)
(0.99748 0.00462295 0)
(1.00299 -0.00615853 0)
(0.991269 0.0113421 0)
(1.01123 -0.00615769 0)
(0.991216 -0.00192687 0)
(0.99152 -0.00634387 0)
(1.00007 0.0028812 0)
(0.991622 0.0013429 0)
(0.9849 0.0237943 0)
(1.00791 -0.0031499 0)
(0.990245 0.0169735 0)
(1.01148 -0.00627148 0)
(1.00275 -0.00888708 0)
(0.995701 -0.0096496 0)
(0.994968 -0.0155932 0)
(0.989422 -0.0110155 0)
(0.990903 -0.011744 0)
(0.991829 -0.00609196 0)
(0.993241 -0.00278239 0)
(0.992602 0.00357455 0)
(0.999815 0.00459353 0)
(1.00095 -0.00605977 0)
(0.996275 0.0112087 0)
(1.00893 -0.00611831 0)
(0.995149 -0.00176479 0)
(0.993303 -0.00631901 0)
(0.998389 0.00280237 0)
(0.990467 0.00155692 0)
(0.991863 0.0234214 0)
(1.01007 -0.00305403 0)
(0.996914 0.0165365 0)
(1.01412 -0.00614963 0)
(1.00604 -0.00866591 0)
(0.998345 -0.00945126 0)
(0.996772 -0.0152523 0)
(0.990131 -0.0109442 0)
(0.989934 -0.0117458 0)
(0.989525 -0.00610208 0)
(0.990341 -0.00278316 0)
(0.989986 0.0037237 0)
(1.00111 0.00456159 0)
(0.99967 -0.00598004 0)
(0.999631 0.011074 0)
(1.00736 -0.00606226 0)
(0.99734 -0.0016454 0)
(0.994885 -0.00623017 0)
(0.997552 0.00275513 0)
(0.989441 0.00166355 0)
(0.996964 0.0229769 0)
(1.01125 -0.00294058 0)
(1.0015 0.0160572 0)
(1.01565 -0.0059431 0)
(1.00818 -0.00846642 0)
(1.00031 -0.00917677 0)
(0.99832 -0.0149124 0)
(0.991092 -0.0107228 0)
(0.989533 -0.0116868 0)
(0.987789 -0.00603428 0)
(0.987857 -0.00273965 0)
(0.987596 0.00381446 0)
(1.00178 0.00452792 0)
(0.998952 -0.00591234 0)
(1.00165 0.0109352 0)
(1.00644 -0.00598788 0)
(0.998561 -0.00156043 0)
(0.996043 -0.0061005 0)
(0.997319 0.00273265 0)
(0.988817 0.00169911 0)
(1.00027 0.0224739 0)
(1.01179 -0.00280024 0)
(1.00429 0.0155359 0)
(1.01631 -0.00565882 0)
(1.00941 -0.00830493 0)
(1.00161 -0.00883917 0)
(0.999498 -0.0145828 0)
(0.992091 -0.0104036 0)
(0.989609 -0.0115551 0)
(0.986738 -0.00589767 0)
(0.986043 -0.00260089 0)
(0.985724 0.00380086 0)
(1.00207 0.00449208 0)
(0.998622 -0.00584941 0)
(1.00269 0.0107885 0)
(1.00603 -0.0058975 0)
(0.999244 -0.0014998 0)
(0.996747 -0.00594371 0)
(0.997417 0.00272306 0)
(0.988605 0.00169757 0)
(1.00208 0.0219253 0)
(1.01194 -0.0026286 0)
(1.00569 0.0149731 0)
(1.01638 -0.00530823 0)
(1.01 -0.00819138 0)
(1.00234 -0.00844307 0)
(1.00031 -0.0142855 0)
(0.992955 -0.0100114 0)
(0.989988 -0.0113539 0)
(0.986316 -0.00571161 0)
(0.984965 -0.00237534 0)
(0.984505 0.00367935 0)
(1.00214 0.00445342 0)
(0.998525 -0.00578517 0)
(1.00308 0.0106297 0)
(1.00598 -0.00579409 0)
(0.999636 -0.00145439 0)
(0.997064 -0.00576631 0)
(0.997646 0.00271369 0)
(0.98869 0.00168625 0)
(1.00283 0.0213394 0)
(1.01185 -0.0024243 0)
(1.00618 0.0143682 0)
(1.01607 -0.00490763 0)
(1.01022 -0.00811829 0)
(1.00263 -0.00800726 0)
(1.00085 -0.0140186 0)
(0.993621 -0.00957149 0)
(0.990501 -0.0110913 0)
(0.986372 -0.00550027 0)
(0.984532 -0.00203925 0)
(0.983949 0.00351238 0)
(1.0021 0.00441147 0)
(0.998549 -0.00571519 0)
(1.0031 0.0104557 0)
(1.0061 -0.00568026 0)
(0.999879 -0.00141634 0)
(0.997106 -0.00557141 0)
(0.997891 0.00269426 0)
(0.988957 0.00168345 0)
(1.00297 0.0207228 0)
(1.01159 -0.00218941 0)
(1.00617 0.0137243 0)
(1.01554 -0.00447036 0)
(1.01026 -0.0080775 0)
(1.00266 -0.00754168 0)
(1.0012 -0.0137661 0)
(0.99412 -0.00913521 0)
(0.99103 -0.0107368 0)
(0.986739 -0.00530966 0)
(0.984566 -0.00156276 0)
(0.983937 0.00336609 0)
(1.00201 0.00436586 0)
(0.998631 -0.00563651 0)
(1.00295 0.0102644 0)
(1.00626 -0.00555712 0)
(1.00005 -0.00138167 0)
(0.996991 -0.0053586 0)
(0.998106 0.00265718 0)
(0.989329 0.00169954 0)
(1.0028 0.0200778 0)
(1.01124 -0.0019245 0)
(1.00596 0.0130444 0)
(1.01488 -0.00399758 0)
(1.01024 -0.00807285 0)
(1.00255 -0.00704445 0)
(1.00143 -0.0135203 0)
(0.994512 -0.0087171 0)
(0.991513 -0.010277 0)
(0.987271 -0.00520708 0)
(0.984882 -0.00103389 0)
(0.984281 0.00325308 0)
(1.00191 0.00431624 0)
(0.998743 -0.00554746 0)
(1.00275 0.010055 0)
(1.0064 -0.00542456 0)
(1.00017 -0.0013498 0)
(0.996823 -0.00512687 0)
(0.998282 0.00259777 0)
(0.989764 0.00173852 0)
(1.00254 0.0194043 0)
(1.01089 -0.00162817 0)
(1.00569 0.0123266 0)
(1.01417 -0.00349291 0)
(1.01021 -0.0080995 0)
(1.00237 -0.00652759 0)
(1.00156 -0.0132645 0)
(0.994847 -0.00833209 0)
(0.991926 -0.00973445 0)
(0.987876 -0.00516422 0)
(0.985341 -0.000501414 0)
(0.9848 0.00321122 0)
(1.0018 0.00426222 0)
(0.998874 -0.00544737 0)
(1.00254 0.00982797 0)
(1.00647 -0.0052819 0)
(1.00026 -0.00132137 0)
(0.996675 -0.004877 0)
(0.998427 0.00251504 0)
(0.990234 0.0017994 0)
(1.00227 0.018706 0)
(1.01057 -0.00130622 0)
(1.00544 0.0115815 0)
(1.01344 -0.00297513 0)
(1.01017 -0.0081406 0)
(1.00217 -0.00600413 0)
(1.00162 -0.012982 0)
(0.995149 -0.00801174 0)
(0.992267 -0.00909252 0)
(0.988504 -0.00515843 0)
(0.985866 3.83074e-05 0)
(0.985376 0.00327053 0)
(1.00169 0.00420342 0)
(0.999017 -0.00533587 0)
(1.00236 0.00958366 0)
(1.00646 -0.00512732 0)
(1.00031 -0.00129936 0)
(0.996588 -0.00460709 0)
(0.998551 0.00240726 0)
(0.990716 0.00188253 0)
(1.00202 0.0179838 0)
(1.01031 -0.000963519 0)
(1.00522 0.0108191 0)
(1.01272 -0.00244881 0)
(1.01012 -0.00818857 0)
(1.00198 -0.00548999 0)
(1.00161 -0.0126371 0)
(0.995441 -0.00777569 0)
(0.99254 -0.00836066 0)
(0.989134 -0.0051668 0)
(0.98643 0.00052393 0)
(0.985954 0.00343936 0)
(1.00158 0.00413934 0)
(0.999171 -0.00521271 0)
(1.00221 0.00932257 0)
(1.00641 -0.00495871 0)
(1.00033 -0.00128747 0)
(0.996576 -0.00431686 0)
(0.998659 0.00227444 0)
(0.991195 0.00198912 0)
(1.0018 0.0172356 0)
(1.01009 -0.00060105 0)
(1.00504 0.0100391 0)
(1.01201 -0.00191491 0)
(1.01006 -0.0082306 0)
(1.00181 -0.00501067 0)
(1.00154 -0.012209 0)
(0.995734 -0.00762832 0)
(0.992757 -0.00757094 0)
(0.98975 -0.00513719 0)
(0.987025 0.00087288 0)
(0.986521 0.00371319 0)
(1.00146 0.00406969 0)
(0.999336 -0.005078 0)
(1.00208 0.00904504 0)
(1.00633 -0.00477482 0)
(1.00031 -0.00128743 0)
(0.996631 -0.00400714 0)
(0.998756 0.00211946 0)
(0.991664 0.00211359 0)
(1.0016 0.016467 0)
(1.00991 -0.000224845 0)
(1.00489 0.00925014 0)
(1.01133 -0.00139144 0)
(1.00996 -0.00824957 0)
(1.00167 -0.00457952 0)
(1.00143 -0.0116889 0)
(0.996043 -0.00756047 0)
(0.992935 -0.00674775 0)
(0.99034 -0.00504648 0)
(0.987651 0.00107372 0)
(0.987081 0.00406028 0)
(1.00133 0.00399442 0)
(0.999511 -0.00493198 0)
(1.00196 0.00875154 0)
(1.00623 -0.0045746 0)
(1.00026 -0.00130138 0)
(0.996732 -0.00367709 0)
(0.998842 0.00194243 0)
(0.992125 0.00225301 0)
(1.00142 0.015685 0)
(1.00973 0.000151325 0)
(1.00476 0.00847425 0)
(1.01067 -0.0008955 0)
(1.00984 -0.00823495 0)
(1.00157 -0.00420071 0)
(1.00127 -0.0110762 0)
(0.996372 -0.00754058 0)
(0.993097 -0.0059464 0)
(0.990892 -0.00485297 0)
(0.988306 0.00113831 0)
(0.987637 0.00444219 0)
(1.00118 0.00391314 0)
(0.999691 -0.00477389 0)
(1.00184 0.00844116 0)
(1.00612 -0.00435522 0)
(1.0002 -0.00133285 0)
(0.996857 -0.00332932 0)
(0.998919 0.00174945 0)
(0.992579 0.00240334 0)
(1.00123 0.0148917 0)
(1.00956 0.000525385 0)
(1.00464 0.00771858 0)
(1.01003 -0.000430312 0)
(1.00968 -0.00817535 0)
(1.0015 -0.00387885 0)
(1.00108 -0.0103854 0)
(0.99672 -0.00754788 0)
(0.993263 -0.00519566 0)
(0.991403 -0.00454369 0)
(0.988989 0.00108002 0)
(0.988195 0.00480317 0)
(1.00104 0.00382575 0)
(0.999868 -0.00460349 0)
(1.00172 0.0081143 0)
(1.006 -0.00411731 0)
(1.00013 -0.00137957 0)
(0.99699 -0.00296762 0)
(0.998994 0.00154368 0)
(0.993024 0.00256052 0)
(1.00105 0.0140962 0)
(1.00938 0.000883016 0)
(1.00454 0.00699424 0)
(1.0094 -4.71431e-06 0)
(1.0095 -0.00806682 0)
(1.00146 -0.00362263 0)
(1.00086 -0.00961488 0)
(0.997083 -0.00756032 0)
(0.993454 -0.00450984 0)
(0.991867 -0.00412012 0)
(0.989695 0.000930225 0)
(0.988766 0.00509422 0)
(1.00091 0.00373182 0)
(1.00003 -0.00442013 0)
(1.00161 0.00777062 0)
(1.00586 -0.00386066 0)
(1.00007 -0.00144181 0)
(0.997116 -0.00259109 0)
(0.999072 0.00132567 0)
(0.993458 0.00271858 0)
(1.00088 0.0133099 0)
(1.00919 0.00121529 0)
(1.00444 0.00631942 0)
(1.00877 0.000379931 0)
(1.0093 -0.00790569 0)
(1.00145 -0.00343998 0)
(1.00063 -0.0087887 0)
(0.99745 -0.00754805 0)
(0.993687 -0.00391878 0)
(0.992281 -0.0035899 0)
(0.990416 0.000736145 0)
(0.989361 0.00527404 0)
(1.00079 0.00363184 0)
(1.00018 -0.00422458 0)
(1.00151 0.00741066 0)
(1.00571 -0.00358575 0)
(1.00003 -0.00151996 0)
(0.997231 -0.0022038 0)
(0.99916 0.00110495 0)
(0.993881 0.00286658 0)
(1.00071 0.0125409 0)
(1.00898 0.00151956 0)
(1.00435 0.00569411 0)
(1.00815 0.000723435 0)
(1.00908 -0.00768778 0)
(1.00146 -0.00331431 0)
(1.00038 -0.00792797 0)
(0.99781 -0.00749411 0)
(0.993975 -0.00344589 0)
(0.992649 -0.00298108 0)
(0.991136 0.000538375 0)
(0.989994 0.00530125 0)
(1.0007 0.00352541 0)
(1.00031 -0.00401573 0)
(1.00143 0.00703439 0)
(1.00553 -0.00329369 0)
(1.00001 -0.00161024 0)
(0.997333 -0.00181257 0)
(0.999261 0.000885825 0)
(0.994292 0.00300046 0)
(1.00057 0.0118046 0)
(1.00874 0.00176636 0)
(1.00429 0.00512185 0)
(1.00753 0.00102448 0)
(1.00886 -0.00742123 0)
(1.0015 -0.0032318 0)
(1.00013 -0.00703467 0)
(0.998151 -0.00737357 0)
(0.994327 -0.00307894 0)
(0.992977 -0.00231537 0)
(0.991835 0.00039576 0)
(0.990676 0.00516306 0)
(1.00062 0.00341176 0)
(1.00041 -0.0037918 0)
(1.00137 0.0066413 0)
(1.00533 -0.00298569 0)
(1.00001 -0.00170964 0)
(0.997425 -0.00141849 0)
(0.999376 0.000675694 0)
(0.994692 0.00310691 0)
(1.00043 0.0111144 0)
(1.00849 0.00196069 0)
(1.00424 0.00459747 0)
(1.00692 0.00128944 0)
(1.00861 -0.00710764 0)
(1.00157 -0.00319657 0)
(0.999876 -0.00613699 0)
(0.998462 -0.00716232 0)
(0.994746 -0.00282299 0)
(0.99328 -0.00162996 0)
(0.992491 0.000362867 0)
(0.991408 0.00486858 0)
(1.00056 0.00329143 0)
(1.0005 -0.0035549 0)
(1.00133 0.00623389 0)
(1.00512 -0.00266513 0)
(1.00004 -0.00181662 0)
(0.997509 -0.00103178 0)
(0.999501 0.000481058 0)
(0.995087 0.00317741 0)
(1.00032 0.0104766 0)
(1.00823 0.00210153 0)
(1.0042 0.00412258 0)
(1.00633 0.00151936 0)
(1.00835 -0.00674881 0)
(1.00166 -0.00320616 0)
(0.999635 -0.00525629 0)
(0.998732 -0.00684216 0)
(0.995227 -0.00267687 0)
(0.993579 -0.000990435 0)
(0.993082 0.000461005 0)
(0.992178 0.00445824 0)
(1.00052 0.00316544 0)
(1.00057 -0.00330643 0)
(1.0013 0.00581477 0)
(1.00489 -0.00233531 0)
(1.00007 -0.00192974 0)
(0.997588 -0.000653513 0)
(0.999632 0.00030964 0)
(0.995478 0.00320721 0)
(1.00022 0.00989562 0)
(1.00794 0.00218884 0)
(1.00417 0.00369293 0)
(1.00575 0.00172573 0)
(1.00807 -0.00635334 0)
(1.00178 -0.00323972 0)
(0.999413 -0.00441461 0)
(0.998952 -0.00642081 0)
(0.995756 -0.00260041 0)
(0.993897 -0.000428112 0)
(0.993599 0.000696481 0)
(0.992961 0.00400345 0)
(1.00048 0.00303199 0)
(1.00063 -0.00304413 0)
(1.00129 0.00538656 0)
(1.00466 -0.00200087 0)
(1.00012 -0.00203761 0)
(0.997663 -0.00029833 0)
(0.999764 0.000175956 0)
(0.99587 0.00317964 0)
(1.00013 0.00936644 0)
(1.00765 0.00225181 0)
(1.00416 0.00328876 0)
(1.00519 0.00191277 0)
(1.00777 -0.00591053 0)
(1.00194 -0.00329498 0)
(0.999214 -0.00362905 0)
(0.999116 -0.00590323 0)
(0.996321 -0.00257454 0)
(0.994254 5.79533e-05 0)
(0.994038 0.00105104 0)
(0.993719 0.00360375 0)
(1.00044 0.00289264 0)
(1.00069 -0.00277215 0)
(1.00128 0.00495214 0)
(1.00443 -0.00166483 0)
(1.00017 -0.00213531 0)
(0.997737 2.95682e-05 0)
(0.999891 8.41465e-05 0)
(0.996262 0.00310036 0)
(1.00005 0.00888688 0)
(1.00735 0.00228106 0)
(1.00415 0.00290549 0)
(1.00466 0.00208192 0)
(1.00744 -0.00541751 0)
(1.00212 -0.00337385 0)
(0.999052 -0.00290442 0)
(0.999218 -0.00528087 0)
(0.996903 -0.00256435 0)
(0.994666 0.000429671 0)
(0.994412 0.00147005 0)
(0.994409 0.00334676 0)
(1.00041 0.00274788 0)
(1.00073 -0.00249215 0)
(1.00128 0.00451543 0)
(1.00419 -0.00133678 0)
(1.00023 -0.00221648 0)
(0.997813 0.0003245 0)
(1.00001 4.19674e-05 0)
(0.996655 0.00297301 0)
(0.999975 0.00844862 0)
(1.00704 0.00229799 0)
(1.00415 0.00253797 0)
(1.00416 0.00223479 0)
(1.00708 -0.00488053 0)
(1.00232 -0.0034425 0)
(0.998938 -0.00227634 0)
(0.999261 -0.00457967 0)
(0.997479 -0.00253121 0)
(0.995142 0.000665465 0)
(0.994748 0.00188807 0)
(0.995003 0.00325766 0)
(1.00038 0.00259865 0)
(1.00076 -0.00220723 0)
(1.00128 0.00408101 0)
(1.00396 -0.00102082 0)
(1.00029 -0.00227491 0)
(0.997892 0.000564609 0)
(1.00011 4.77742e-05 0)
(0.997049 0.00280378 0)
(0.999911 0.00803511 0)
(1.00671 0.00231522 0)
(1.00416 0.0021803 0)
(1.00369 0.00235802 0)
(1.00669 -0.00429285 0)
(1.00254 -0.00349409 0)
(0.998884 -0.0017463 0)
(0.999251 -0.00382635 0)
(0.998026 -0.00245454 0)
(0.995678 0.000788388 0)
(0.995077 0.00224949 0)
(0.995489 0.00331022 0)
(1.00035 0.00244535 0)
(1.00079 -0.0019221 0)
(1.00128 0.00366089 0)
(1.00372 -0.000728953 0)
(1.00034 -0.00230579 0)
(0.997975 0.000755046 0)
(1.00021 0.000100628 0)
(0.997441 0.00260308 0)
(0.999857 0.00763384 0)
(1.00637 0.00234282 0)
(1.00417 0.00183669 0)
(1.00327 0.00244021 0)
(1.00626 -0.00366865 0)
(1.00277 -0.00351342 0)
(0.998898 -0.001322 0)
(0.999197 -0.00304828 0)
(0.998524 -0.00230483 0)
(0.996265 0.000830617 0)
(0.995425 0.00253395 0)
(0.995883 0.00344589 0)
(1.00032 0.00228865 0)
(1.0008 -0.00163749 0)
(1.00128 0.00325833 0)
(1.00349 -0.00046522 0)
(1.00039 -0.00230624 0)
(0.998066 0.000899745 0)
(1.00028 0.000193302 0)
(0.997829 0.00238014 0)
(0.999819 0.00723615 0)
(1.00602 0.00239268 0)
(1.00419 0.0015153 0)
(1.00289 0.00248995 0)
(1.00581 -0.00301024 0)
(1.00298 -0.00348221 0)
(0.998986 -0.00100743 0)
(0.999119 -0.00227262 0)
(0.998959 -0.00208074 0)
(0.996888 0.000809427 0)
(0.995806 0.00273646 0)
(0.996207 0.003603 0)
(1.00029 0.00213144 0)
(1.0008 -0.00136059 0)
(1.00128 0.00288138 0)
(1.00326 -0.000224757 0)
(1.00044 -0.00227749 0)
(0.998163 0.000992689 0)
(1.00034 0.000311424 0)
(0.998209 0.00214884 0)
(0.999799 0.00684134 0)
(1.00565 0.00245575 0)
(1.00421 0.00123177 0)
(1.00258 0.0024993 0)
(1.00533 -0.00233042 0)
(1.00318 -0.0033872 0)
(0.999147 -0.000791099 0)
(0.999029 -0.0015242 0)
(0.999315 -0.00178325 0)
(0.997529 0.000742744 0)
(0.996234 0.00286069 0)
(0.996493 0.00375296 0)
(1.00026 0.00197308 0)
(1.0008 -0.00109408 0)
(1.00128 0.00253583 0)
(1.00304 -1.20531e-05 0)
(1.00049 -0.0022168 0)
(0.998271 0.00103918 0)
(1.00039 0.000456976 0)
(0.998576 0.00191006 0)
(0.999802 0.00643077 0)
(1.00528 0.00255079 0)
(1.00422 0.000996631 0)
(1.00232 0.00245966 0)
(1.00484 -0.00165786 0)
(1.00333 -0.00320715 0)
(0.999378 -0.000670244 0)
(0.998947 -0.000844757 0)
(0.999584 -0.00140191 0)
(0.998168 0.000657347 0)
(0.996712 0.00290496 0)
(0.996763 0.00388317 0)
(1.00024 0.0018153 0)
(1.00078 -0.000837588 0)
(1.00128 0.00221802 0)
(1.00282 0.000171447 0)
(1.00053 -0.00212736 0)
(0.998389 0.00104321 0)
(1.00043 0.000625754 0)
(0.998924 0.00169918 0)
(0.999831 0.00600177 0)
(1.0049 0.00266025 0)
(1.00422 0.000807821 0)
(1.00213 0.00236753 0)
(1.00436 -0.0010244 0)
(1.00343 -0.00294101 0)
(0.999664 -0.000617388 0)
(0.998896 -0.000267756 0)
(0.999767 -0.000945774 0)
(0.998778 0.000581571 0)
(0.997244 0.00285975 0)
(0.997044 0.00397952 0)
(1.00022 0.00165832 0)
(1.00076 -0.000596696 0)
(1.00128 0.00192734 0)
(1.00261 0.000337998 0)
(1.00056 -0.00200133 0)
(0.998519 0.000999777 0)
(1.00045 0.00080286 0)
(0.999251 0.00153775 0)
(0.999886 0.00556199 0)
(1.00453 0.00277078 0)
(1.00421 0.000683571 0)
(1.002 0.00222653 0)
(1.00388 -0.000457364 0)
(1.00347 -0.00260626 0)
(0.999995 -0.000619016 0)
(0.9989 0.000214224 0)
(0.999875 -0.000450747 0)
(0.999334 0.00055941 0)
(0.997824 0.00273848 0)
(0.997354 0.00403016 0)
(1.0002 0.00150362 0)
(1.00073 -0.000370281 0)
(1.00127 0.00166081 0)
(1.0024 0.000476601 0)
(1.00058 -0.00184052 0)
(0.998659 0.000931515 0)
(1.00048 0.000981641 0)
(0.999553 0.0014318 0)
(0.999966 0.00511557 0)
(1.00416 0.00286532 0)
(1.00417 0.000634839 0)
(1.00193 0.00205736 0)
(1.00344 3.08288e-05 0)
(1.00346 -0.00221368 0)
(1.00036 -0.000630579 0)
(0.998972 0.000587792 0)
(0.999926 5.52342e-05 0)
(0.999816 0.000618824 0)
(0.998437 0.00256346 0)
(0.997714 0.00400824 0)
(1.00018 0.00135315 0)
(1.00069 -0.000165248 0)
(1.00126 0.00142837 0)
(1.00221 0.000591844 0)
(1.0006 -0.00163967 0)
(0.998808 0.000812676 0)
(1.0005 0.00113605 0)
(0.999828 0.00138262 0)
(1.00007 0.00469885 0)
(1.00382 0.00294293 0)
(1.00411 0.00065205 0)
(1.0019 0.00187325 0)
(1.00304 0.000436988 0)
(1.0034 -0.0017859 0)
(1.00073 -0.000628168 0)
(0.999121 0.000830172 0)
(0.999949 0.000541767 0)
(1.00021 0.00076104 0)
(0.999054 0.00237555 0)
(0.998137 0.00389909 0)
(1.00016 0.00120686 0)
(1.00065 2.02168e-05 0)
(1.00125 0.00121397 0)
(1.00203 0.000678764 0)
(1.00059 -0.00140717 0)
(0.998964 0.000681293 0)
(1.00053 0.00124414 0)
(1.00008 0.00135144 0)
(1.00018 0.00430503 0)
(1.00349 0.00299934 0)
(1.00402 0.000726493 0)
(1.0019 0.00170714 0)
(1.00269 0.000777668 0)
(1.0033 -0.00132774 0)
(1.00109 -0.000590909 0)
(0.999346 0.00097822 0)
(0.999972 0.00097972 0)
(1.00051 0.000976029 0)
(0.999642 0.00223061 0)
(0.99862 0.00372463 0)
(1.00015 0.00106225 0)
(1.0006 0.000189323 0)
(1.00124 0.00101786 0)
(1.00188 0.000732922 0)
(1.00059 -0.00116188 0)
(0.999123 0.000584516 0)
(1.00057 0.00131352 0)
(1.0003 0.001386 0)
(1.00031 0.00396358 0)
(1.0032 0.00300956 0)
(1.00392 0.000820313 0)
(1.00194 0.00156576 0)
(1.00239 0.001045 0)
(1.00315 -0.000862716 0)
(1.00143 -0.000501984 0)
(0.999632 0.00105184 0)
(1.00001 0.00134643 0)
(1.00073 0.00123423 0)
(1.00017 0.00214704 0)
(0.999141 0.00351232 0)
(1.00014 0.000927168 0)
(1.00054 0.000333159 0)
(1.00122 0.000854499 0)
(1.00173 0.000742211 0)
(1.00056 -0.000865719 0)
(0.999275 0.000551069 0)
(1.00063 0.00136471 0)
(1.00051 0.00145354 0)
(1.00044 0.00363424 0)
(1.00293 0.00294531 0)
(1.00379 0.000911121 0)
(1.002 0.00144315 0)
(1.00216 0.00124988 0)
(1.00298 -0.000410896 0)
(1.00172 -0.000364996 0)
(0.999969 0.00106589 0)
(1.00009 0.00162159 0)
(1.00088 0.00149906 0)
(1.00063 0.00211574 0)
(0.999676 0.00329117 0)
(1.00013 0.000800803 0)
(1.00048 0.000451584 0)
(1.00119 0.000716715 0)
(1.00161 0.000738907 0)
(1.00054 -0.000548528 0)
(0.999416 0.000558937 0)
(1.0007 0.00136532 0)
(1.00069 0.00146963 0)
(1.00057 0.00332349 0)
(1.00269 0.00286431 0)
(1.00366 0.00101428 0)
(1.00207 0.00134938 0)
(1.00198 0.0014128 0)
(1.0028 1.56874e-05 0)
(1.00196 -0.000177752 0)
(1.00034 0.00105624 0)
(1.00023 0.00181303 0)
(1.001 0.00176374 0)
(1.00101 0.00214778 0)
(1.0002 0.00310924 0)
(1.00012 0.000678478 0)
(1.00042 0.00055117 0)
(1.00116 0.00062159 0)
(1.00151 0.000702887 0)
(1.00051 -0.000258519 0)
(0.999539 0.000602467 0)
(1.00077 0.00134222 0)
(1.00086 0.00147367 0)
(1.0007 0.00307681 0)
(1.00248 0.00279268 0)
(1.00352 0.00111542 0)
(1.00215 0.00127232 0)
(1.00186 0.00152817 0)
(1.00262 0.000412488 0)
(1.00214 4.95301e-05 0)
(1.00073 0.00105055 0)
(1.00043 0.00192556 0)
(1.00111 0.00199916 0)
(1.00131 0.00222356 0)
(1.00068 0.00296983 0)
(1.00011 0.000570389 0)
(1.00036 0.000622819 0)
(1.00111 0.00056207 0)
(1.00144 0.000617547 0)
(1.0005 1.35169e-05 0)
(0.999647 0.000709622 0)
(1.00083 0.00133222 0)
(1.00102 0.00146567 0)
(1.00083 0.00285892 0)
(1.0023 0.00272065 0)
(1.00337 0.00121739 0)
(1.00224 0.00121607 0)
(1.0018 0.00159361 0)
(1.00245 0.000769786 0)
(1.00227 0.000309467 0)
(1.0011 0.00106618 0)
(1.00068 0.0019725 0)
(1.00122 0.00217788 0)
(1.00155 0.0023175 0)
(1.0011 0.00287173 0)
(1.00011 0.000474637 0)
(1.0003 0.0006581 0)
(1.00106 0.000538495 0)
(1.00138 0.000523568 0)
(1.0005 0.000243129 0)
(0.999736 0.000847262 0)
(1.00089 0.00133655 0)
(1.00117 0.00144371 0)
(1.00097 0.00266568 0)
(1.00214 0.0026573 0)
(1.00322 0.00132422 0)
(1.00233 0.00118267 0)
(1.00179 0.00161552 0)
(1.00231 0.00106427 0)
(1.00235 0.000592739 0)
(1.00145 0.00111768 0)
(1.00097 0.00198282 0)
(1.00136 0.00230669 0)
(1.00175 0.00242083 0)
(1.00146 0.00282337 0)
(1.0001 0.000392654 0)
(1.00025 0.000664951 0)
(1.00099 0.000545917 0)
(1.00133 0.000419699 0)
(1.00051 0.000408723 0)
(0.999815 0.00101749 0)
(1.00093 0.00137873 0)
(1.00131 0.00141839 0)
(1.00111 0.00247265 0)
(1.00201 0.00258674 0)
(1.00306 0.00143357 0)
(1.0024 0.00117721 0)
(1.00183 0.00161696 0)
(1.0022 0.00130286 0)
(1.0024 0.000874182 0)
(1.00175 0.00120394 0)
(1.00128 0.00197168 0)
(1.00153 0.00238185 0)
(1.00192 0.00250517 0)
(1.00176 0.00279945 0)
(1.00009 0.000325813 0)
(1.0002 0.000646253 0)
(1.00092 0.000568496 0)
(1.00129 0.000338152 0)
(1.00055 0.000523868 0)
(0.999889 0.00118859 0)
(1.00096 0.00144536 0)
(1.00143 0.0013945 0)
(1.00125 0.00228866 0)
(1.00192 0.00251498 0)
(1.0029 0.00155577 0)
(1.00246 0.00120638 0)
(1.0019 0.00160639 0)
(1.00214 0.00148176 0)
(1.00242 0.00112595 0)
(1.00201 0.00131414 0)
(1.00159 0.00195796 0)
(1.00172 0.00241406 0)
(1.00208 0.00256942 0)
(1.00201 0.0027942 0)
(1.00009 0.000270829 0)
(1.00016 0.000611729 0)
(1.00084 0.00061329 0)
(1.00126 0.000285878 0)
(1.00062 0.000587279 0)
(0.999965 0.00133587 0)
(1.00096 0.00153412 0)
(1.00152 0.00138776 0)
(1.0014 0.00211829 0)
(1.00185 0.00242807 0)
(1.00275 0.00166998 0)
(1.0025 0.00126512 0)
(1.002 0.00158974 0)
(1.00212 0.00160527 0)
(1.00243 0.00134507 0)
(1.00222 0.00144243 0)
(1.00189 0.001961 0)
(1.00194 0.00241911 0)
(1.00224 0.00261164 0)
(1.00223 0.00279643 0)
(1.00008 0.000231854 0)
(1.00013 0.000561101 0)
(1.00076 0.000675999 0)
(1.00123 0.00027875 0)
(1.0007 0.000591394 0)
(1.00005 0.00143243 0)
(1.00096 0.0016298 0)
(1.00158 0.00140384 0)
(1.00153 0.00196442 0)
(1.00183 0.00232462 0)
(1.00262 0.00176284 0)
(1.00251 0.00135058 0)
(1.0021 0.00158732 0)
(1.00213 0.00168946 0)
(1.00245 0.00153113 0)
(1.00239 0.00157329 0)
(1.00217 0.00197405 0)
(1.00217 0.00240177 0)
(1.0024 0.00261933 0)
(1.00241 0.00278987 0)
(1.00007 0.000203412 0)
(1.00011 0.000508403 0)
(1.00069 0.000741724 0)
(1.00118 0.000319074 0)
(1.00079 0.000562133 0)
(1.00015 0.00146053 0)
(1.00095 0.0017226 0)
(1.00162 0.00145104 0)
(1.00166 0.00184068 0)
(1.00183 0.00221356 0)
(1.0025 0.00183052 0)
(1.00251 0.00144593 0)
(1.00219 0.00160739 0)
(1.00218 0.00174808 0)
(1.00248 0.0016743 0)
(1.00253 0.00169211 0)
(1.00242 0.00199095 0)
(1.0024 0.00237672 0)
(1.00258 0.00260296 0)
(1.00259 0.00277097 0)
(1.00006 0.00018441 0)
(1.00009 0.00045956 0)
(1.00062 0.000791843 0)
(1.00113 0.000398056 0)
(1.00088 0.000537876 0)
(1.00027 0.00143538 0)
(1.00094 0.00179837 0)
(1.00162 0.00152114 0)
(1.00176 0.00174906 0)
(1.00185 0.00209779 0)
(1.00242 0.00187115 0)
(1.0025 0.00153659 0)
(1.00228 0.00164039 0)
(1.00224 0.00179567 0)
(1.00251 0.00178175 0)
(1.00265 0.0017981 0)
(1.00264 0.00201419 0)
(1.00262 0.00234939 0)
(1.00276 0.00257597 0)
(1.00275 0.00273545 0)
(1.00006 0.000172521 0)
(1.00009 0.000413178 0)
(1.00056 0.00082125 0)
(1.00106 0.000498807 0)
(1.00096 0.000538328 0)
(1.00041 0.00137666 0)
(1.00095 0.00184151 0)
(1.00161 0.0016029 0)
(1.00184 0.00169626 0)
(1.00189 0.00198977 0)
(1.00236 0.00188479 0)
(1.00249 0.00161814 0)
(1.00236 0.00167416 0)
(1.00231 0.00183208 0)
(1.00256 0.00186419 0)
(1.00274 0.00188698 0)
(1.00282 0.00204175 0)
(1.00284 0.00231583 0)
(1.00293 0.00253919 0)
(1.00292 0.00268382 0)
(1.00005 0.000165304 0)
(1.00009 0.000374108 0)
(1.00052 0.000825891 0)
(1.001 0.000607065 0)
(1.00102 0.000574633 0)
(1.00055 0.00130375 0)
(1.00098 0.00184121 0)
(1.00159 0.00168 0)
(1.00189 0.00168458 0)
(1.00193 0.00190297 0)
(1.00232 0.0018757 0)
(1.00248 0.0016833 0)
(1.00243 0.00171232 0)
(1.00239 0.00185706 0)
(1.00262 0.0019244 0)
(1.00283 0.0019564 0)
(1.00298 0.0020701 0)
(1.00303 0.00228349 0)
(1.0031 0.00249224 0)
(1.00308 0.00262686 0)
(1.00004 0.000158953 0)
(1.00009 0.000347072 0)
(1.00049 0.000813879 0)
(1.00093 0.000707476 0)
(1.00107 0.000647084 0)
(1.00069 0.00123573 0)
(1.00103 0.00180189 0)
(1.00157 0.00173996 0)
(1.00192 0.00169879 0)
(1.00197 0.00184267 0)
(1.00231 0.0018562 0)
(1.00248 0.00172576 0)
(1.0025 0.00175087 0)
(1.00248 0.00187736 0)
(1.00268 0.0019625 0)
(1.00291 0.00200861 0)
(1.00311 0.00209458 0)
(1.00321 0.00225815 0)
(1.00327 0.00243872 0)
(1.00323 0.00256796 0)
(1.00004 0.000152515 0)
(1.0001 0.000332737 0)
(1.00047 0.000794586 0)
(1.00088 0.000789926 0)
(1.0011 0.000737484 0)
(1.00082 0.00118822 0)
(1.0011 0.00173857 0)
(1.00156 0.00177665 0)
(1.00193 0.00172486 0)
(1.00201 0.0018092 0)
(1.0023 0.00183988 0)
(1.00248 0.00175147 0)
(1.00256 0.0017735 0)
(1.00256 0.00189315 0)
(1.00276 0.00198433 0)
(1.00298 0.00204367 0)
(1.00322 0.00211183 0)
(1.00336 0.00223418 0)
(1.00343 0.00238316 0)
(1.00338 0.00250247 0)
(1.00003 0.000146826 0)
(1.0001 0.000327366 0)
(1.00046 0.00077188 0)
(1.00084 0.000851522 0)
(1.00112 0.000830351 0)
(1.00093 0.00117022 0)
(1.00118 0.00166711 0)
(1.00156 0.0017804 0)
(1.00194 0.00175335 0)
(1.00204 0.00179594 0)
(1.00231 0.00182943 0)
(1.00249 0.00177386 0)
(1.00262 0.00178681 0)
(1.00265 0.00189871 0)
(1.00283 0.00199616 0)
(1.00306 0.00205962 0)
(1.00331 0.00211865 0)
(1.00349 0.00220639 0)
(1.00357 0.0023266 0)
(1.00351 0.002431 0)
(1.00003 0.000140421 0)
(1.0001 0.000329065 0)
(1.00046 0.000752402 0)
(1.0008 0.00089184 0)
(1.00113 0.000919214 0)
(1.00103 0.00117831 0)
(1.00126 0.00160449 0)
(1.00158 0.0017575 0)
(1.00194 0.00177288 0)
(1.00205 0.00179679 0)
(1.00232 0.00182314 0)
(1.0025 0.00178922 0)
(1.00267 0.00179945 0)
(1.00273 0.00188955 0)
(1.00291 0.00199133 0)
(1.00313 0.00205999 0)
(1.0034 0.00211492 0)
(1.0036 0.00217896 0)
(1.00369 0.00226949 0)
(1.00364 0.00235795 0)
(1.00003 0.000134782 0)
(1.00011 0.000333883 0)
(1.00045 0.000739955 0)
(1.00078 0.000917274 0)
(1.00113 0.000994359 0)
(1.0011 0.00120256 0)
(1.00134 0.00155706 0)
(1.00161 0.00172417 0)
(1.00195 0.00177426 0)
(1.00207 0.00180369 0)
(1.00232 0.00182695 0)
(1.00251 0.00179805 0)
(1.00271 0.00180914 0)
(1.00281 0.00187893 0)