/*--------------------------------*- C++ -*----------------------------------*\
| =========                 |                                                 |
| \\      /  F ield         | OpenFOAM: The Open Source CFD Toolbox           |
|  \\    /   O peration     | Version:  3.0.1                                 |
|   \\  /    A nd           | Web:      www.OpenFOAM.org                      |
|    \\/     M anipulation  |                                                 |
\*---------------------------------------------------------------------------*/
FoamFile
{
    version     2.0;
    format      ascii;
    class       volScalarField;
    location    "3.3";
    object      p;
}
// * * * * * * * * * * * * * * * * * * * * * * * * * * * * * * * * * * * * * //

dimensions      [0 2 -2 0 0 0 0];

internalField   nonuniform List<scalar> 
9600
(
1.48461e-10
-0.00131619
-0.00100248
-0.00172913
-0.00402616
-0.00273696
-0.00102232
-0.00232695
-0.002942
-0.00290441
-0.00220929
-0.00450677
-0.006244
-0.00467013
-0.00604066
-0.00436631
-0.00616248
-0.00474632
-0.00468717
-0.00392054
4.0582e-07
-0.00131632
-0.00100515
-0.00173668
-0.00393896
-0.00273326
-0.00103987
-0.00232919
-0.00294479
-0.00291855
-0.00218274
-0.00451947
-0.00609609
-0.00468169
-0.00601099
-0.00441044
-0.00610783
-0.00475574
-0.00467372
-0.00399465
6.68471e-07
-0.0013169
-0.00101062
-0.00174477
-0.00389618
-0.00273053
-0.00106235
-0.00232982
-0.00295394
-0.00293315
-0.0021882
-0.00453731
-0.00595914
-0.00470078
-0.00597424
-0.00446523
-0.00602242
-0.00478668
-0.00466413
-0.00409174
4.7515e-07
-0.00131788
-0.00101665
-0.00175363
-0.00385263
-0.00272866
-0.00108283
-0.00233049
-0.00296428
-0.00294971
-0.00218347
-0.00456479
-0.00582679
-0.00472512
-0.00592804
-0.00452262
-0.00593786
-0.00482844
-0.00466473
-0.00420066
-1.27181e-07
-0.00131931
-0.00102263
-0.00176267
-0.00380656
-0.00272794
-0.00110208
-0.00233205
-0.00297367
-0.00296652
-0.00218302
-0.00459759
-0.00569556
-0.00475146
-0.00587565
-0.00458671
-0.00585894
-0.00486541
-0.00468218
-0.00431071
-1.05756e-06
-0.00132131
-0.0010281
-0.001771
-0.00375791
-0.00272905
-0.00112066
-0.00233351
-0.00297995
-0.00298213
-0.00218531
-0.00463084
-0.0055655
-0.00477713
-0.00581915
-0.00465352
-0.00578321
-0.00489545
-0.00472099
-0.0044068
-2.23898e-06
-0.00132388
-0.00103267
-0.00177826
-0.00370718
-0.002733
-0.00113783
-0.0023338
-0.00298184
-0.00299574
-0.00218843
-0.00466149
-0.00543721
-0.00479975
-0.00576084
-0.00471575
-0.00571176
-0.00492215
-0.00477374
-0.00448725
-3.57354e-06
-0.00132692
-0.00103632
-0.00178453
-0.00365469
-0.00273505
-0.00115341
-0.00233256
-0.00297939
-0.00300724
-0.00219118
-0.00468814
-0.00531093
-0.00481778
-0.00570202
-0.00476874
-0.00564952
-0.00494232
-0.0048334
-0.00456401
-4.97757e-06
-0.00133033
-0.00103938
-0.00179008
-0.00360055
-0.00273652
-0.0011679
-0.00232981
-0.0029734
-0.00301689
-0.00219316
-0.00471046
-0.00518703
-0.00482999
-0.00564346
-0.00481101
-0.00559836
-0.00495077
-0.00490112
-0.00464683
-6.40918e-06
-0.00133403
-0.00104218
-0.00179527
-0.00354485
-0.00273719
-0.00118198
-0.00232575
-0.00296489
-0.00302506
-0.00219436
-0.00472868
-0.00506607
-0.00483514
-0.00558694
-0.00484147
-0.0055577
-0.00494732
-0.00497847
-0.00473835
-7.8584e-06
-0.00133793
-0.00104495
-0.00180037
-0.0034877
-0.00273699
-0.00119626
-0.00232058
-0.00295483
-0.00303207
-0.00219498
-0.00474321
-0.00494869
-0.00483189
-0.00553452
-0.00485867
-0.0055279
-0.00493494
-0.00506186
-0.00484012
-9.32869e-06
-0.00134197
-0.00104776
-0.00180548
-0.00342918
-0.00273594
-0.00121124
-0.00231445
-0.00294406
-0.00303803
-0.00219531
-0.00475427
-0.00483557
-0.00481917
-0.00548813
-0.0048618
-0.00551016
-0.00491678
-0.00514504
-0.00495527
-1.08277e-05
-0.00134608
-0.00105061
-0.00181058
-0.00336937
-0.00273401
-0.00122727
-0.00230747
-0.00293324
-0.00304292
-0.00219572
-0.00476171
-0.0047277
-0.00479614
-0.00544955
-0.00485105
-0.00550433
-0.00489684
-0.00522144
-0.00508548
-1.23648e-05
-0.00135024
-0.00105345
-0.0018156
-0.0033084
-0.0027311
-0.0012446
-0.00229966
-0.00292284
-0.00304653
-0.0021966
-0.00476514
-0.00462627
-0.00476203
-0.00541986
-0.00482737
-0.00550857
-0.00488055
-0.00528491
-0.00522955
-1.39495e-05
-0.0013544
-0.00105622
-0.00182045
-0.00324639
-0.00272707
-0.0012634
-0.00229093
-0.00291324
-0.00304855
-0.00219843
-0.0047641
-0.00453233
-0.00471624
-0.00539968
-0.00479042
-0.00551891
-0.00487382
-0.00533064
-0.00538382
-1.5592e-05
-0.00135853
-0.00105891
-0.00182504
-0.00318348
-0.00272173
-0.00128384
-0.00228117
-0.00290475
-0.00304866
-0.00220165
-0.00475804
-0.00444689
-0.00465858
-0.00538909
-0.00473633
-0.00552965
-0.00488222
-0.00535633
-0.00554213
-1.7306e-05
-0.00136258
-0.00106151
-0.00182925
-0.00311984
-0.00271487
-0.00130609
-0.00227019
-0.00289761
-0.00304653
-0.00220663
-0.00474652
-0.00437079
-0.00458934
-0.00538722
-0.00468996
-0.00553508
-0.00491003
-0.00536279
-0.00569657
-1.91076e-05
-0.00136651
-0.00106406
-0.00183299
-0.00305567
-0.00270626
-0.00133035
-0.00225776
-0.00289205
-0.00304189
-0.00221361
-0.00472939
-0.00430462
-0.00450914
-0.00539213
-0.00464665
-0.00553046
-0.00495916
-0.00535314
-0.00583857
-2.10153e-05
-0.00137026
-0.00106659
-0.00183612
-0.00299119
-0.00269565
-0.00135679
-0.00224366
-0.00288828
-0.00303455
-0.0022227
-0.00470667
-0.00424873
-0.00441867
-0.00540097
-0.00461071
-0.00551256
-0.00502829
-0.00533246
-0.00595968
-2.3052e-05
-0.00137375
-0.00106916
-0.00183849
-0.00292668
-0.00268276
-0.00138566
-0.00222766
-0.00288643
-0.00302449
-0.00223373
-0.0046786
-0.00420315
-0.00431904
-0.0054099
-0.00458666
-0.00548002
-0.00511364
-0.00530739
-0.00605255
-2.52468e-05
-0.0013769
-0.00107184
-0.00183993
-0.00286244
-0.00266728
-0.00141718
-0.0022096
-0.00288653
-0.00301191
-0.00224614
-0.00464581
-0.00416736
-0.00421251
-0.00541532
-0.00457683
-0.00543264
-0.00521025
-0.0052854
-0.00611164
-2.76394e-05
-0.00137959
-0.00107469
-0.00184024
-0.00279882
-0.00264888
-0.00145149
-0.00218948
-0.00288848
-0.00299718
-0.00225899
-0.00460902
-0.00414048
-0.00410148
-0.00541469
-0.00458296
-0.00537125
-0.0053125
-0.00527371
-0.00613395
-3.02849e-05
-0.00138168
-0.00107783
-0.00183919
-0.00273618
-0.00262727
-0.00148872
-0.00216733
-0.00289205
-0.00298103
-0.00227095
-0.00456899
-0.00412195
-0.00398775
-0.00540574
-0.00460582
-0.00529764
-0.00541421
-0.00527833
-0.00611938
-3.32501e-05
-0.00138301
-0.00108135
-0.00183651
-0.0026749
-0.00260194
-0.00152893
-0.00214326
-0.00289675
-0.0029645
-0.00228068
-0.00452624
-0.0041113
-0.00387321
-0.0053865
-0.00464539
-0.00521441
-0.00550871
-0.00530342
-0.00607097
-3.66151e-05
-0.00138338
-0.00108542
-0.00183194
-0.00261531
-0.00257235
-0.00157203
-0.00211749
-0.00290185
-0.00294896
-0.0022868
-0.0044808
-0.00410834
-0.00375999
-0.00535509
-0.0047013
-0.00512508
-0.00558829
-0.00535154
-0.00599599
-4.04939e-05
-0.00138254
-0.00109019
-0.00182526
-0.00255773
-0.00253957
-0.00161777
-0.00209054
-0.00290622
-0.002936
-0.00228847
-0.00443203
-0.00411293
-0.00365023
-0.00530967
-0.00477301
-0.00503436
-0.00564451
-0.00542338
-0.00590614
-4.50261e-05
-0.00138017
-0.00109579
-0.0018163
-0.00250248
-0.00250311
-0.00166564
-0.00206319
-0.00290839
-0.00292701
-0.00228566
-0.00437892
-0.00412481
-0.00354593
-0.00524861
-0.00485914
-0.00494812
-0.0056692
-0.00551598
-0.0058162
-5.03603e-05
-0.00137593
-0.00110237
-0.00180487
-0.00244977
-0.0024631
-0.00171488
-0.00203646
-0.00290694
-0.0029228
-0.00227856
-0.00432039
-0.00414439
-0.00344938
-0.00517021
-0.00495662
-0.00487279
-0.00565587
-0.00562121
-0.00574266
-5.66695e-05
-0.00136947
-0.00111008
-0.00179085
-0.00239973
-0.00241991
-0.0017645
-0.0020116
-0.00290064
-0.0029234
-0.00226808
-0.00425504
-0.00417131
-0.00336377
-0.00507335
-0.00506087
-0.00481558
-0.00560151
-0.00572574
-0.00570127
-6.41419e-05
-0.00136041
-0.00111895
-0.00177425
-0.00235234
-0.00237411
-0.0018132
-0.00198985
-0.00288855
-0.00292854
-0.00225599
-0.00418123
-0.00420382
-0.00329269
-0.00495811
-0.00516634
-0.00478346
-0.00550893
-0.00581296
-0.00570231
-7.29785e-05
-0.0013484
-0.001129
-0.00175514
-0.00230741
-0.00232643
-0.00185955
-0.0019722
-0.00287
-0.00293775
-0.00224436
-0.00409773
-0.00424007
-0.00323964
-0.00482551
-0.00526608
-0.00478094
-0.00538748
-0.00586553
-0.00574462
-8.33749e-05
-0.00133312
-0.00114013
-0.00173373
-0.00226446
-0.00227796
-0.00190218
-0.00195935
-0.0028449
-0.0029499
-0.00223555
-0.00400428
-0.00427751
-0.00320739
-0.00467808
-0.00535218
-0.004809
-0.00525006
-0.00586945
-0.00581353
-9.54905e-05
-0.00131431
-0.00115205
-0.00171048
-0.00222281
-0.00222967
-0.00194011
-0.00195152
-0.00281364
-0.00296361
-0.00223179
-0.00390149
-0.00431292
-0.0031974
-0.00451949
-0.00541738
-0.0048652
-0.00511118
-0.00581842
-0.00588575
-0.000109413
-0.00129183
-0.00116427
-0.00168608
-0.00218181
-0.00218223
-0.00197272
-0.00194861
-0.00277681
-0.00297723
-0.00223526
-0.00379087
-0.00434233
-0.00321023
-0.00435499
-0.00545398
-0.00494375
-0.00498456
-0.00571614
-0.00593751
-0.000125191
-0.00126574
-0.00117607
-0.00166125
-0.00214094
-0.00213605
-0.00199977
-0.00195041
-0.00273539
-0.00298891
-0.00224783
-0.00367511
-0.0043615
-0.00324514
-0.00419077
-0.0054558
-0.00503728
-0.00488053
-0.00557346
-0.00594882
-0.000142914
-0.00123626
-0.00118627
-0.0016364
-0.00210008
-0.00209098
-0.00202102
-0.0019568
-0.00269051
-0.00299723
-0.00227041
-0.00355758
-0.00436754
-0.00329947
-0.00403225
-0.00541976
-0.00513746
-0.00480526
-0.00540307
-0.00590905
-0.00016255
-0.00120407
-0.00119366
-0.00161124
-0.00205965
-0.00204705
-0.0020359
-0.00196783
-0.00264372
-0.00300086
-0.00230302
-0.00344174
-0.00435802
-0.00336933
-0.00388399
-0.00534361
-0.00523437
-0.00476181
-0.00521813
-0.00581723
-0.000183894
-0.00117047
-0.00119742
-0.00158474
-0.0020199
-0.00200473
-0.0020438
-0.00198319
-0.00259736
-0.00299878
-0.00234501
-0.00333067
-0.00433043
-0.00345003
-0.00375398
-0.00522768
-0.00531719
-0.00475217
-0.00503215
-0.00567734
-0.000206709
-0.00113607
-0.00119686
-0.00155609
-0.00198082
-0.00196521
-0.00204485
-0.00200164
-0.00255409
-0.00299045
-0.00239384
-0.00322712
-0.00428338
-0.0035357
-0.00364644
-0.00507699
-0.00537538
-0.00477542
-0.00485869
-0.00549567
-0.000230674
-0.00110149
-0.00119195
-0.00152439
-0.00194195
-0.0019302
-0.00204027
-0.00202131
-0.00251509
-0.00297553
-0.00244485
-0.00313293
-0.00421743
-0.00362014
-0.00356594
-0.00490146
-0.00539848
-0.00482411
-0.00471074
-0.00528231
-0.000255242
-0.00106729
-0.00118349
-0.00148901
-0.00190196
-0.00190087
-0.00203222
-0.00204017
-0.00248084
-0.00295441
-0.00249365
-0.00304849
-0.00413447
-0.0036974
-0.00351461
-0.00471246
-0.00537786
-0.00488519
-0.00459973
-0.0050529
-0.000279518
-0.00103392
-0.0011728
-0.00144972
-0.00185835
-0.00187788
-0.00202402
-0.00205693
-0.00245147
-0.00292782
-0.00253699
-0.0029729
-0.00403657
-0.00376246
-0.00349064
-0.00452084
-0.0053111
-0.0049439
-0.00453069
-0.00482561
-0.000302859
-0.00100146
-0.00116095
-0.00140697
-0.00180895
-0.00185998
-0.00201826
-0.00207331
-0.00242837
-0.00289565
-0.00257145
-0.00290389
-0.00392574
-0.00381107
-0.00349019
-0.00433724
-0.00520206
-0.0049863
-0.00449855
-0.0046174
-0.000324969
-0.00096894
-0.00114841
-0.00136228
-0.00175328
-0.00184527
-0.00201664
-0.00209091
-0.00241031
-0.00285831
-0.00259605
-0.00284061
-0.00380493
-0.00383886
-0.00350725
-0.00417013
-0.00505811
-0.00500061
-0.00449187
-0.00444047
-0.000345399
-0.000935764
-0.00113544
-0.00131727
-0.00169294
-0.0018381
-0.0020203
-0.00210247
-0.00238924
-0.00281837
-0.00261469
-0.00278489
-0.00367728
-0.00384186
-0.00353433
-0.00402669
-0.00488925
-0.00497959
-0.00449769
-0.00430015
-0.000363774
-0.000901542
-0.00112217
-0.00127866
-0.00162963
-0.00182574
-0.00202504
-0.00210791
-0.00236378
-0.00277714
-0.00263087
-0.00273833
-0.00354569
-0.00381846
-0.00356419
-0.00391057
-0.00470684
-0.00492009
-0.00450324
-0.00419497
-0.000380074
-0.000866316
-0.00110879
-0.00124713
-0.00156365
-0.00180559
-0.00202977
-0.00211186
-0.00233509
-0.00273435
-0.00264426
-0.0027006
-0.00341386
-0.00376952
-0.00358825
-0.00381948
-0.00452167
-0.00482337
-0.00449635
-0.0041181
-0.000394354
-0.000829964
-0.00109376
-0.00122322
-0.00149866
-0.00177687
-0.00203245
-0.00211587
-0.00230485
-0.00268605
-0.00265138
-0.00267068
-0.00328396
-0.00369635
-0.00359809
-0.00374798
-0.00434387
-0.00469649
-0.00446752
-0.00405984
-0.000406407
-0.000792614
-0.00107513
-0.00120783
-0.00143937
-0.00173851
-0.00202953
-0.00212068
-0.00227459
-0.00262898
-0.00264854
-0.00264798
-0.00316362
-0.00360271
-0.00358797
-0.0036891
-0.00417948
-0.00454864
-0.00441121
-0.00400839
-0.000415861
-0.000754736
-0.00105187
-0.00120025
-0.00138978
-0.00169145
-0.00201683
-0.0021247
-0.00224557
-0.00256806
-0.00263431
-0.00263054
-0.00305592
-0.00349545
-0.00355565
-0.00363465
-0.00402984
-0.00438856
-0.00432702
-0.00395244
-0.000422456
-0.000716645
-0.00102358
-0.00119921
-0.00135313
-0.00163756
-0.00199106
-0.00212572
-0.00221988
-0.00250344
-0.00260744
-0.00261293
-0.00296006
-0.00338172
-0.00350241
-0.00357813
-0.00389446
-0.00422442
-0.00421865
-0.00388415
-0.000426033
-0.00067908
-0.000990639
-0.0012017
-0.00132984
-0.00158121
-0.00195176
-0.00212083
-0.00219812
-0.00243776
-0.0025668
-0.00258962
-0.00287351
-0.00326651
-0.0034321
-0.00351591
-0.00377025
-0.00406153
-0.00409052
-0.00379887
-0.000426491
-0.00064363
-0.000953845
-0.00120232
-0.00131821
-0.0015282
-0.00190008
-0.00210609
-0.00217918
-0.00237531
-0.00251407
-0.00255578
-0.00279328
-0.00315242
-0.00334789
-0.00344517
-0.00365273
-0.00390275
-0.00394807
-0.00369531
-0.000424104
-0.000611877
-0.000913805
-0.00119572
-0.00131553
-0.00148357
-0.00183908
-0.00207893
-0.00216062
-0.00231801
-0.00245322
-0.00251052
-0.00271393
-0.00303948
-0.00325276
-0.00336511
-0.00353856
-0.00374918
-0.00379742
-0.00357436
-0.000419124
-0.000583863
-0.000872119
-0.00118018
-0.0013181
-0.00145015
-0.00177365
-0.00203815
-0.00213758
-0.00226499
-0.00238943
-0.00245582
-0.00263171
-0.00292625
-0.00314975
-0.0032763
-0.00342536
-0.0036003
-0.00364346
-0.00343872
-0.000411551
-0.000559348
-0.000830857
-0.00115516
-0.00132051
-0.0014282
-0.00170938
-0.00198381
-0.00210584
-0.00221523
-0.0023248
-0.00239385
-0.00254704
-0.00281125
-0.00303895
-0.00317881
-0.00331137
-0.00345511
-0.00348892
-0.00329323
-0.000401334
-0.000537655
-0.000792282
-0.00112098
-0.00131811
-0.00141636
-0.00165078
-0.00191836
-0.00206236
-0.00216547
-0.00226028
-0.00232663
-0.00246006
-0.00269478
-0.00291987
-0.00307227
-0.00319535
-0.00331243
-0.00333472
-0.00314311
-0.000388612
-0.000517541
-0.000757809
-0.00108196
-0.0013078
-0.00141069
-0.00160075
-0.00184657
-0.00200599
-0.00211056
-0.00219585
-0.00225646
-0.00237033
-0.00257743
-0.00279408
-0.00295597
-0.0030759
-0.00317121
-0.00318087
-0.00299111
-0.000374052
-0.000498295
-0.000727745
-0.00104082
-0.00128865
-0.00140582
-0.00155982
-0.00177414
-0.00193796
-0.00204674
-0.00212873
-0.0021849
-0.00227939
-0.00245889
-0.0026634
-0.00282989
-0.00295105
-0.00303056
-0.00302693
-0.00283755
-0.000358267
-0.000479113
-0.000701605
-0.00100074
-0.00126113
-0.00139703
-0.00152704
-0.00170523
-0.00186106
-0.00197325
-0.00205487
-0.00211015
-0.00218945
-0.00234039
-0.00252896
-0.00269536
-0.00281866
-0.00288887
-0.00287268
-0.0026823
-0.000341958
-0.000459683
-0.000678356
-0.000963578
-0.0012272
-0.00138152
-0.00149913
-0.00164204
-0.00177952
-0.00189059
-0.00197282
-0.00202877
-0.00209853
-0.00222431
-0.00239247
-0.00255447
-0.00267849
-0.00274396
-0.00271782
-0.00252512
-0.000325805
-0.000440153
-0.000656747
-0.000929955
-0.00119013
-0.00135852
-0.00147148
-0.00158476
-0.00169785
-0.00179987
-0.00188243
-0.00193975
-0.00200296
-0.00210981
-0.00225655
-0.00240918
-0.00253183
-0.00259426
-0.00256142
-0.00236598
-0.000310384
-0.000420906
-0.00063586
-0.000899913
-0.00115275
-0.00132872
-0.00144072
-0.0015319
-0.00161912
-0.00170446
-0.00178276
-0.00184265
-0.00190141
-0.00199327
-0.00212196
-0.00226117
-0.00237979
-0.00243983
-0.00240255
-0.00220513
-0.000296131
-0.00040252
-0.000615403
-0.000872985
-0.00111687
-0.00129382
-0.00140533
-0.00148037
-0.0015434
-0.00160871
-0.00167544
-0.00173552
-0.00179352
-0.00187286
-0.00198613
-0.00211144
-0.00222292
-0.00228125
-0.00224074
-0.00204191
-0.000283405
-0.000385747
-0.000595645
-0.000848093
-0.0010833
-0.00125643
-0.00136549
-0.00142789
-0.00146946
-0.00151396
-0.00156498
-0.00161893
-0.0016766
-0.00174769
-0.00184643
-0.00195924
-0.00206158
-0.00211758
-0.00207547
-0.00187509
-0.000272685
-0.000371183
-0.000577192
-0.00082483
-0.00105222
-0.00121871
-0.00132234
-0.00137367
-0.00139642
-0.00141934
-0.00145327
-0.00149593
-0.00154869
-0.00161508
-0.00170174
-0.00180229
-0.00189522
-0.00194699
-0.00190515
-0.00170476
-0.000264499
-0.000359477
-0.000560701
-0.000803322
-0.00102384
-0.00118222
-0.00127744
-0.00131746
-0.00132391
-0.00132543
-0.00133929
-0.00136845
-0.00141179
-0.00147195
-0.00154986
-0.00163862
-0.00172239
-0.00176863
-0.00172714
-0.00152886
-0.000259381
-0.000351055
-0.000547263
-0.000784112
-0.000998012
-0.00114807
-0.00123305
-0.00126017
-0.00125125
-0.00123325
-0.00122356
-0.00123473
-0.00126673
-0.00131731
-0.00138715
-0.00146646
-0.00154198
-0.00158338
-0.00154147
-0.00134567
-0.000257997
-0.000346472
-0.000537765
-0.000768534
-0.000975348
-0.00111675
-0.00119089
-0.00120403
-0.00117862
-0.00114259
-0.0011091
-0.00109491
-0.00111034
-0.00114815
-0.00120758
-0.00128058
-0.00135071
-0.00138997
-0.00135013
-0.00115971
-0.000261314
-0.000346491
-0.000532716
-0.000757361
-0.000956975
-0.00108977
-0.00115227
-0.00115111
-0.00110832
-0.00105244
-0.000997176
-0.000955549
-0.00094451
-0.000961163
-0.00100198
-0.00106597
-0.00113523
-0.00117731
-0.00114425
-0.000965741
-0.000270167
-0.000351325
-0.000533196
-0.000751366
-0.000943595
-0.00106876
-0.00111964
-0.00110305
-0.00104336
-0.000965483
-0.00088511
-0.000818924
-0.000777288
-0.000760996
-0.000771626
-0.000808975
-0.00086662
-0.000913745
-0.000898422
-0.000746618
-0.000286033
-0.000364121
-0.00054002
-0.000750664
-0.000936359
-0.00105477
-0.00109597
-0.00106374
-0.000985194
-0.000886213
-0.000775609
-0.000677555
-0.000604381
-0.000550673
-0.000520014
-0.000514083
-0.000535133
-0.000564507
-0.000556556
-0.000434848
-0.000310243
-0.000384426
-0.000554418
-0.000757556
-0.000936908
-0.00104925
-0.00108289
-0.00104056
-0.000942599
-0.000818908
-0.000675819
-0.000530444
-0.000413488
-0.000320783
-0.000252685
-0.000213247
-0.000196413
-0.000172095
-0.000103964
4.59877e-05
-0.000340369
-0.000411472
-0.000578538
-0.000775551
-0.000946503
-0.00105078
-0.00108111
-0.00103852
-0.000938682
-0.000797918
-0.000604637
-0.000370028
-0.000128795
9.50298e-05
0.000268725
0.000355546
0.000329839
0.000225228
0.000124226
0.000117294
-0.000382091
-0.000452653
-0.000614546
-0.000801947
-0.000959276
-0.00105266
-0.0010806
-0.00104637
-0.000972099
-0.000881919
-0.000763044
-0.000583309
-0.000271977
0.000184057
0.00067026
0.00109744
0.00148524
0.00185698
0.00218962
0.00243191
-0.000442055
-0.000510404
-0.000663939
-0.000838472
-0.000977175
-0.00105575
-0.00107542
-0.00104291
-0.000957481
-0.000770329
-0.000431328
4.78397e-07
0.000425142
0.000777599
0.00103657
0.00123272
0.00139102
0.00154119
0.00169592
0.00182388
-0.000520793
-0.000570868
-0.000720507
-0.000892289
-0.00103738
-0.00112104
-0.001105
-0.000945195
-0.000680281
-0.000394955
-0.000119209
0.000121336
0.000336361
0.00058371
0.000886661
0.00127134
0.00172182
0.00219059
0.00261499
0.00290803
-0.000651493
-0.000679439
-0.000745006
-0.000820801
-0.000878529
-0.000882826
-0.000820807
-0.000691394
-0.00049744
-0.000273776
-3.25687e-05
0.000232188
0.00047981
0.000702344
0.000859125
0.000909043
0.000858096
0.000725176
0.00056431
0.000443497
-0.000810504
-0.000846282
-0.000826013
-0.000802107
-0.000800385
-0.000791855
-0.00075795
-0.0006821
-0.000531779
-0.000320409
-8.85855e-05
0.000188959
0.000483795
0.000778336
0.00112276
0.00151324
0.00193447
0.00233967
0.0026725
0.00286281
-0.000907785
-0.000937422
-0.000893986
-0.000823011
-0.000775084
-0.000737473
-0.000668234
-0.000548443
-0.000365722
-0.000134391
8.07432e-05
0.000289735
0.000517632
0.000744183
0.000971657
0.00120505
0.00143891
0.00165416
0.00181696
0.00188068
-0.00358139
-0.00580894
-0.0107216
-0.0141296
-0.0137592
-0.0114884
-0.00903434
-0.00693381
-0.00528575
-0.00403944
-0.00315652
-0.00260336
-0.00215992
-0.00151635
-0.000654653
0.000166739
0.000805452
0.00131001
0.00177709
0.00233156
0.00301382
0.00371333
0.00434567
0.00493803
0.00555233
0.0062192
0.00689781
0.00752202
0.00810326
0.00871193
0.00936515
0.010008
0.0106009
0.0111824
0.0118107
0.012481
0.0131529
0.0138238
0.0145286
0.0152673
0.0160078
0.0167441
0.0174921
0.0182457
0.0189817
0.0197191
0.0204938
0.0212913
0.0220966
0.0229331
0.0238153
0.024701
0.0255652
0.02645
0.0273516
0.0282409
0.0291621
0.0301318
0.031115
0.0321189
0.0331497
0.0341855
0.035224
0.0362828
0.0373646
0.0384693
0.0395979
0.0407537
0.0419298
0.0431266
0.0443414
0.0455769
0.0468332
0.048119
0.049427
0.0507591
0.0521135
0.0534978
0.0549077
0.0563446
0.0578033
0.0592912
0.0608071
0.062354
0.0639298
0.0655333
0.0671673
0.0688303
0.0705278
0.072254
0.0740131
0.075802
0.0776228
0.0794755
0.0813615
0.0832696
0.0852272
0.0871889
0.0890635
0.0910091
-0.00375333
-0.00587091
-0.0106071
-0.0139985
-0.0136947
-0.0114589
-0.00901541
-0.00691919
-0.00527354
-0.00402857
-0.00314646
-0.00259471
-0.00215331
-0.00151131
-0.000650281
0.000170892
0.000809345
0.00131357
0.00178017
0.00233417
0.00301628
0.0037158
0.00434803
0.00494018
0.00555425
0.00622096
0.00689952
0.00752366
0.00810472
0.00871323
0.00936638
0.0100092
0.0106021
0.0111835
0.0118116
0.0124819
0.0131538
0.0138246
0.0145293
0.015268
0.0160085
0.0167448
0.0174927
0.0182463
0.0189822
0.0197196
0.0204943
0.0212918
0.022097
0.0229336
0.0238157
0.0247014
0.0255656
0.0264504
0.027352
0.0282412
0.0291624
0.0301321
0.0311153
0.0321192
0.03315
0.0341858
0.0352242
0.036283
0.0373648
0.0384695
0.0395981
0.0407539
0.04193
0.0431268
0.0443416
0.0455771
0.0468334
0.0481192
0.0494271
0.0507593
0.0521137
0.053498
0.0549078
0.0563448
0.0578034
0.0592913
0.0608073
0.0623541
0.0639299
0.0655335
0.0671675
0.0688304
0.0705279
0.0722541
0.0740132
0.0758021
0.0776229
0.0794756
0.0813616
0.0832696
0.0852273
0.087189
0.0890636
0.0910093
-0.00405753
-0.00599654
-0.0103981
-0.013739
-0.0135715
-0.011413
-0.0089925
-0.00690346
-0.00526145
-0.00401905
-0.0031382
-0.00258651
-0.00214529
-0.00150424
-0.000644529
0.000175372
0.000812963
0.0013168
0.00178306
0.00233667
0.00301856
0.00371797
0.0043501
0.00494213
0.00555604
0.00622263
0.00690112
0.00752515
0.00810605
0.00871442
0.00936753
0.0100103
0.0106031
0.0111843
0.0118124
0.0124827
0.0131545
0.0138253
0.01453
0.0152686
0.0160091
0.0167453
0.0174933
0.0182469
0.0189827
0.0197201
0.0204947
0.0212922
0.0220974
0.0229339
0.0238161
0.0247018
0.025566
0.0264507
0.0273523
0.0282415
0.0291626
0.0301324
0.0311155
0.0321195
0.0331502
0.034186
0.0352245
0.0362832
0.037365
0.0384697
0.0395983
0.0407541
0.0419302
0.043127
0.0443418
0.0455772
0.0468335
0.0481193
0.0494273
0.0507594
0.0521138
0.0534981
0.0549079
0.0563449
0.0578035
0.0592914
0.0608074
0.0623542
0.06393
0.0655335
0.0671675
0.0688305
0.070528
0.0722541
0.0740133
0.0758022
0.0776229
0.0794757
0.0813616
0.0832697
0.0852273
0.087189
0.0890637
0.0910096
-0.004369
-0.00610698
-0.0101096
-0.0133782
-0.013384
-0.0113417
-0.00895849
-0.00688175
-0.00524584
-0.00400843
-0.00313082
-0.00257859
-0.00213487
-0.00149309
-0.000635476
0.000181449
0.000817269
0.00132085
0.0017872
0.00234032
0.00302135
0.00372011
0.00435214
0.00494435
0.00555825
0.00622459
0.00690288
0.00752681
0.00810763
0.0087159
0.0093689
0.0100116
0.0106042
0.0111853
0.0118133
0.0124836
0.0131554
0.013826
0.0145307
0.0152692
0.0160097
0.016746
0.0174938
0.0182474
0.0189833
0.0197205
0.0204952
0.0212927
0.0220978
0.0229343
0.0238165
0.0247022
0.0255663
0.026451
0.0273527
0.0282418
0.0291629
0.0301326
0.0311158
0.0321197
0.0331505
0.0341863
0.0352247
0.0362835
0.0373652
0.0384699
0.0395985
0.0407543
0.0419304
0.0431272
0.044342
0.0455774
0.0468337
0.0481194
0.0494274
0.0507596
0.0521139
0.0534982
0.054908
0.056345
0.0578036
0.0592915
0.0608075
0.0623543
0.0639301
0.0655336
0.0671676
0.0688306
0.0705281
0.0722542
0.0740134
0.0758022
0.077623
0.0794758
0.0813617
0.0832698
0.0852274
0.0871892
0.0890639
0.0910101
-0.00465086
-0.0061908
-0.00979363
-0.0129785
-0.0131656
-0.0112573
-0.00891872
-0.00685569
-0.00522635
-0.00399565
-0.00312361
-0.0025706
-0.0021214
-0.001477
-0.000622618
0.000189128
0.000822207
0.00132624
0.00179386
0.00234659
0.00302555
0.0037225
0.00435426
0.00494712
0.00556123
0.00622704
0.00690476
0.00752867
0.00810973
0.00871802
0.00937073
0.0100131
0.0106056
0.0111867
0.0118145
0.0124846
0.0131563
0.013827
0.0145316
0.0152701
0.0160105
0.0167467
0.0174946
0.0182481
0.0189838
0.0197211
0.0204957
0.0212931
0.0220982
0.0229347
0.0238169
0.0247026
0.0255668
0.0264514
0.0273531
0.0282422
0.0291632
0.030133
0.0311161
0.03212
0.0331508
0.0341865
0.035225
0.0362837
0.0373655
0.0384702
0.0395987
0.0407545
0.0419306
0.0431274
0.0443422
0.0455776
0.0468338
0.0481196
0.0494276
0.0507597
0.0521141
0.0534984
0.0549082
0.0563451
0.0578038
0.0592917
0.0608076
0.0623544
0.0639302
0.0655338
0.0671677
0.0688307
0.0705282
0.0722543
0.0740135
0.0758023
0.0776231
0.0794758
0.0813618
0.0832699
0.0852275
0.0871893
0.0890641
0.0910109
-0.00489938
-0.00628068
-0.00948644
-0.012562
-0.0129266
-0.0111654
-0.008877
-0.00682732
-0.00520383
-0.00398065
-0.00311569
-0.00256186
-0.00210534
-0.00145723
-0.000607157
0.000197493
0.000827073
0.00133265
0.00180338
0.00235635
0.00303205
0.00372564
0.00435667
0.00495065
0.00556529
0.00623011
0.00690666
0.00753053
0.00811233
0.0087209
0.00937316
0.0100151
0.0106075
0.0111886
0.0118161
0.0124859
0.0131575
0.0138282
0.0145327
0.0152711
0.0160114
0.0167477
0.0174954
0.0182489
0.0189845
0.0197217
0.0204963
0.0212937
0.0220988
0.0229352
0.0238174
0.0247031
0.0255672
0.0264519
0.0273535
0.0282426
0.0291635
0.0301333
0.0311164
0.0321203
0.0331511
0.0341869
0.0352253
0.036284
0.0373657
0.0384704
0.039599
0.0407547
0.0419308
0.0431276
0.0443424
0.0455778
0.046834
0.0481198
0.0494278
0.0507599
0.0521142
0.0534985
0.0549083
0.0563453
0.0578039
0.0592918
0.0608077
0.0623546
0.0639304
0.0655339
0.0671679
0.0688308
0.0705283
0.0722544
0.0740136
0.0758024
0.0776232
0.0794759
0.0813619
0.0832699
0.0852276
0.0871895
0.0890644
0.0910119
-0.00512823
-0.00639515
-0.00919506
-0.0121272
-0.012664
-0.0110648
-0.00883373
-0.00679722
-0.00517865
-0.00396322
-0.00310624
-0.00255192
-0.00208751
-0.00143539
-0.000590574
0.000205539
0.000831074
0.00133929
0.00181514
0.00236939
0.00304113
0.00373007
0.00435982
0.0049552
0.00557058
0.00623394
0.0069086
0.00753232
0.00811529
0.0087244
0.00937606
0.0100175
0.0106101
0.0111913
0.0118185
0.0124876
0.013159
0.0138297
0.0145341
0.0152722
0.0160126
0.0167489
0.0174966
0.0182499
0.0189854
0.0197225
0.020497
0.0212943
0.0220994
0.0229358
0.023818
0.0247038
0.0255678
0.0264524
0.027354
0.028243
0.0291639
0.0301337
0.0311168
0.0321207
0.0331515
0.0341872
0.0352256
0.0362843
0.037366
0.0384707
0.0395993
0.040755
0.0419311
0.0431279
0.0443426
0.045578
0.0468342
0.04812
0.049428
0.0507601
0.0521144
0.0534987
0.0549085
0.0563454
0.057804
0.0592919
0.0608079
0.0623547
0.0639305
0.065534
0.067168
0.0688309
0.0705284
0.0722545
0.0740137
0.0758025
0.0776233
0.079476
0.081362
0.08327
0.0852277
0.0871896
0.0890648
0.0910132
-0.00534263
-0.0065257
-0.0089133
-0.0116708
-0.0123752
-0.0109549
-0.00878958
-0.00676636
-0.00515123
-0.00394314
-0.00309485
-0.00254078
-0.00206858
-0.00141242
-0.000573377
0.000213297
0.000834288
0.00134568
0.00182804
0.00238464
0.00305234
0.00373596
0.00436404
0.00496089
0.00557705
0.00623854
0.00691073
0.00753415
0.00811853
0.00872828
0.00937913
0.0100199
0.0106131
0.011195
0.0118217
0.0124899
0.013161
0.0138317
0.0145358
0.0152735
0.0160138
0.0167504
0.0174981
0.0182511
0.0189866
0.0197237
0.0204979
0.0212951
0.0221001
0.0229365
0.0238187
0.0247045
0.0255685
0.0264531
0.0273545
0.0282435
0.0291644
0.0301341
0.0311172
0.0321211
0.0331519
0.0341876
0.035226
0.0362846
0.0373663
0.038471
0.0395996
0.0407553
0.0419314
0.0431281
0.0443429
0.0455783
0.0468345
0.0481202
0.0494282
0.0507603
0.0521146
0.0534989
0.0549087
0.0563456
0.0578042
0.0592921
0.060808
0.0623549
0.0639306
0.0655341
0.0671681
0.068831
0.0705285
0.0722546
0.0740138
0.0758026
0.0776234
0.0794761
0.0813621
0.0832701
0.0852278
0.0871899
0.0890653
0.0910149
-0.0055337
-0.00665833
-0.00864279
-0.0111981
-0.0120608
-0.010835
-0.00874514
-0.00673555
-0.00512175
-0.00392012
-0.00308126
-0.0025285
-0.00204886
-0.0013886
-0.00055549
0.000221304
0.000837372
0.00135197
0.00184143
0.00240108
0.00306497
0.00374309
0.00436935
0.00496763
0.00558448
0.0062438
0.00691317
0.00753621
0.00812213
0.00873241
0.00938211
0.0100222
0.0106163
0.0111994
0.0118258
0.0124929
0.0131636
0.0138344
0.014538
0.0152749
0.0160151
0.016752
0.0174997
0.0182526
0.0189881
0.0197252
0.0204992
0.021296
0.022101
0.0229374
0.0238195
0.0247053
0.0255694
0.0264539
0.0273553
0.0282442
0.029165
0.0301346
0.0311177
0.0321217
0.0331524
0.0341881
0.0352264
0.0362851
0.0373667
0.0384714
0.0395999
0.0407557
0.0419317
0.0431285
0.0443432
0.0455786
0.0468348
0.0481205
0.0494285
0.0507606
0.0521149
0.0534991
0.0549089
0.0563458
0.0578044
0.0592923
0.0608082
0.062355
0.0639308
0.0655343
0.0671683
0.0688312
0.0705286
0.0722548
0.074014
0.0758028
0.0776235
0.0794763
0.0813622
0.0832703
0.0852279
0.0871901
0.089066
0.0910169
-0.00569238
-0.00678617
-0.00839247
-0.0107173
-0.0117209
-0.0107029
-0.00869973
-0.00670493
-0.00509019
-0.0038939
-0.00306524
-0.00251502
-0.00202838
-0.00136387
-0.000536688
0.000229974
0.000840843
0.00135852
0.00185522
0.00241825
0.00307854
0.00375118
0.00437557
0.00497526
0.00559267
0.00624958
0.00691594
0.00753861
0.00812613
0.00873679
0.00938497
0.0100241
0.0106195
0.0112042
0.0118305
0.0124965
0.0131668
0.0138377
0.0145408
0.0152766
0.0160164
0.0167536
0.0175013
0.0182541
0.0189898
0.0197271
0.0205008
0.0212973
0.0221021
0.0229383
0.0238203
0.0247061