/*--------------------------------*- C++ -*----------------------------------*\
| =========                 |                                                 |
| \\      /  F ield         | OpenFOAM: The Open Source CFD Toolbox           |
|  \\    /   O peration     | Version:  3.0.1                                 |
|   \\  /    A nd           | Web:      www.OpenFOAM.org                      |
|    \\/     M anipulation  |                                                 |
\*---------------------------------------------------------------------------*/
FoamFile
{
    version     2.0;
    format      ascii;
    class       surfaceScalarField;
    location    "3.3";
    object      phi;
}
// * * * * * * * * * * * * * * * * * * * * * * * * * * * * * * * * * * * * * //

dimensions      [0 3 -1 0 0 0 0];

internalField   nonuniform List<scalar> 
19000
(
1.17194e-06
2.01779e-07
1.16613e-06
-8.44525e-08
1.14889e-06
4.72352e-07
1.12948e-06
-9.76178e-07
1.20038e-06
-1.00745e-08
1.19146e-06
2.2485e-08
1.1352e-06
4.03601e-07
1.14284e-06
6.72332e-07
1.12689e-06
4.20224e-07
1.10226e-06
-6.04288e-07
1.15047e-06
6.95033e-08
1.11535e-06
-1.13843e-06
1.16385e-06
-7.23425e-08
1.13561e-06
-5.66904e-07
1.17195e-06
-1.21707e-07
1.14333e-06
-5.35827e-08
1.16043e-06
1.04689e-07
1.15052e-06
3.34073e-07
1.13851e-06
2.85831e-07
3.59861e-07
1.11857e-06
1.22566e-06
2.00384e-07
1.2214e-06
-8.02011e-08
1.20173e-06
4.92031e-07
1.18206e-06
-9.56513e-07
1.25287e-06
-8.08829e-08
1.24743e-06
2.79208e-08
1.1854e-06
4.65631e-07
1.19846e-06
6.5927e-07
1.1827e-06
4.35993e-07
1.16161e-06
-5.83206e-07
1.20124e-06
2.98811e-08
1.16948e-06
-1.10668e-06
1.20999e-06
-1.12858e-07
1.19193e-06
-5.48836e-07
1.21631e-06
-1.46095e-07
1.2105e-06
-4.77691e-08
1.19989e-06
1.15297e-07
1.22591e-06
3.0806e-07
1.17429e-06
3.37446e-07
3.33069e-07
1.20108e-06
1.28141e-06
2.01754e-07
1.27853e-06
-7.73162e-08
1.25951e-06
5.11054e-07
1.24066e-06
-9.37662e-07
1.30389e-06
-1.44112e-07
1.30648e-06
2.53308e-08
1.24099e-06
5.31115e-07
1.25215e-06
6.48112e-07
1.24447e-06
4.43672e-07
1.2284e-06
-5.67136e-07
1.25946e-06
-1.18181e-09
1.23664e-06
-1.08385e-06
1.26542e-06
-1.41638e-07
1.26142e-06
-5.44839e-07
1.26972e-06
-1.54399e-07
1.27827e-06
-5.63175e-08
1.25522e-06
1.38351e-07
1.27671e-06
2.86564e-07
1.24381e-06
3.70346e-07
3.43763e-07
1.23312e-06
1.34012e-06
2.05736e-07
1.33865e-06
-7.58408e-08
1.32312e-06
5.26575e-07
1.30635e-06
-9.20888e-07
1.35629e-06
-1.94053e-07
1.36674e-06
1.48793e-08
1.30448e-06
5.93376e-07
1.30938e-06
6.4321e-07
1.31185e-06
4.41205e-07
1.30049e-06
-5.55774e-07
1.32235e-06
-2.30473e-08
1.3082e-06
-1.06969e-06
1.32847e-06
-1.61908e-07
1.33397e-06
-5.5034e-07
1.33357e-06
-1.53995e-07
1.34436e-06
-6.71106e-08
1.32513e-06
1.57578e-07
1.32924e-06
2.82452e-07
1.31707e-06
3.82525e-07
3.65831e-07
1.295e-06
1.40281e-06
2.1128e-07
1.40242e-06
-7.54464e-08
1.39254e-06
5.36454e-07
1.37773e-06
-9.06076e-07
1.41204e-06
-2.28372e-07
1.42728e-06
-3.59461e-10
1.37631e-06
6.44351e-07
1.37521e-06
6.44303e-07
1.38472e-06
4.317e-07
1.37599e-06
-5.47042e-07
1.3901e-06
-3.71627e-08
1.38014e-06
-1.05973e-06
1.39564e-06
-1.77414e-07
1.40408e-06
-5.58774e-07
1.40271e-06
-1.52625e-07
1.41e-06
-7.44064e-08
1.39864e-06
1.68945e-07
1.39271e-06
2.88374e-07
1.38786e-06
3.87377e-07
3.85485e-07
1.36821e-06
1.47003e-06
2.16922e-07
1.47029e-06
-7.57046e-08
1.46664e-06
5.40104e-07
1.45275e-06
-8.92186e-07
1.47229e-06
-2.4791e-07
1.48875e-06
-1.68196e-08
1.45367e-06
6.79433e-07
1.4503e-06
6.4767e-07
1.46237e-06
4.19633e-07
1.45397e-06
-5.38645e-07
1.4625e-06
-4.56938e-08
1.45196e-06
-1.04919e-06
1.46425e-06
-1.89697e-07
1.47189e-06
-5.66415e-07
1.47243e-06
-1.53168e-07
1.47579e-06
-7.77594e-08
1.4699e-06
1.74827e-07
1.46068e-06
2.97601e-07
1.45833e-06
3.89729e-07
4.0181e-07
1.442e-06
1.54169e-06
2.21449e-07
1.54237e-06
-7.63822e-08
1.54394e-06
5.38531e-07
1.52992e-06
-8.78167e-07
1.53746e-06
-2.55447e-07
1.55258e-06
-3.19473e-08
1.53339e-06
6.98627e-07
1.53182e-06
6.49242e-07
1.54365e-06
4.07798e-07
1.53417e-06
-5.2916e-07
1.53894e-06
-5.04622e-08
1.52497e-06
-1.03522e-06
1.5342e-06
-1.98927e-07
1.53918e-06
-5.71391e-07
1.54179e-06
-1.55779e-07
1.54213e-06
-7.81076e-08
1.53972e-06
1.77241e-07
1.52958e-06
3.07742e-07
1.52966e-06
3.89645e-07
4.1519e-07
1.51628e-06
1.61725e-06
2.24324e-07
1.61836e-06
-7.74879e-08
1.62331e-06
5.33583e-07
1.60868e-06
-8.63539e-07
1.60764e-06
-2.54403e-07
1.62011e-06
-4.44265e-08
1.61401e-06
7.04735e-07
1.6166e-06
6.4665e-07
1.62736e-06
3.97032e-07
1.61647e-06
-5.18267e-07
1.61875e-06
-5.27403e-08
1.6005e-06
-1.01697e-06
1.60683e-06
-2.05255e-07
1.60782e-06
-5.72384e-07
1.61195e-06
-1.59905e-07
1.61001e-06
-7.61721e-08
1.61059e-06
1.76659e-07
1.60046e-06
3.17878e-07
1.60344e-06
3.86663e-07
4.25166e-07
1.59346e-06
1.69626e-06
2.25641e-07
1.69785e-06
-7.90844e-08
1.70442e-06
5.27019e-07
1.68928e-06
-8.48401e-07
1.68285e-06
-2.47975e-07
1.69225e-06
-5.38285e-08
1.69575e-06
7.01236e-07
1.70296e-06
6.39442e-07
1.71276e-06
3.87233e-07
1.70077e-06
-5.06278e-07
1.70156e-06
-5.3533e-08
1.67938e-06
-9.94787e-07
1.68335e-06
-2.09229e-07
1.67945e-06
-5.6848e-07
1.6845e-06
-1.6496e-07
1.68057e-06
-7.2242e-08
1.68442e-06
1.7281e-07
1.67526e-06
3.27039e-07
1.68125e-06
3.80675e-07
4.31162e-07
1.67525e-06
1.77856e-06
2.25798e-07
1.78059e-06
-8.11083e-08
1.78764e-06
5.19972e-07
1.77235e-06
-8.33113e-07
1.76306e-06
-2.3869e-07
1.76949e-06
-6.02596e-08
1.77957e-06
6.91162e-07
1.79064e-06
6.28371e-07
1.79976e-06
3.78108e-07
1.78706e-06
-4.93576e-07
1.78726e-06
-5.37348e-08
1.76194e-06
-9.69462e-07
1.76438e-06
-2.11669e-07
1.75523e-06
-5.59335e-07
1.76077e-06
-1.70491e-07
1.75485e-06
-6.63296e-08
1.76216e-06
1.65505e-07
1.75494e-06
3.34254e-07
1.76361e-06
3.72011e-07
4.32827e-07
1.76194e-06
1.86436e-06
2.25187e-07
1.86661e-06
-8.33611e-08
1.8737e-06
5.12884e-07
1.85854e-06
-8.17952e-07
1.8481e-06
-2.28255e-07
1.85196e-06
-6.4115e-08
1.86628e-06
6.76843e-07
1.88001e-06
6.1464e-07
1.88877e-06
3.69342e-07
1.87555e-06
-4.80349e-07
1.87591e-06
-5.40949e-08
1.84824e-06
-9.41792e-07
1.85003e-06
-2.13464e-07
1.83585e-06
-5.45154e-07
1.8416e-06
-1.76244e-07
1.83364e-06
-5.83661e-08
1.84408e-06
1.5507e-07
1.83944e-06
3.38893e-07
1.84996e-06
3.61488e-07
4.30059e-07
1.85273e-06
1.95395e-06
2.24077e-07
1.9562e-06
-8.56163e-08
1.96337e-06
5.05722e-07
1.94836e-06
-8.02945e-07
1.93773e-06
-2.17625e-07
1.93951e-06
-6.58916e-08
1.9564e-06
6.59951e-07
1.97162e-06
5.99417e-07
1.9804e-06
3.60565e-07
1.96665e-06
-4.66603e-07
1.96772e-06
-5.51571e-08
1.93828e-06
-9.1236e-07
1.94023e-06
-2.15411e-07
1.9216e-06
-5.26525e-07
1.9275e-06
-1.82141e-07
1.91751e-06
-4.8376e-08
1.93018e-06
1.42401e-07
1.92833e-06
3.40746e-07
1.93944e-06
3.50378e-07
4.2295e-07
1.94654e-06
2.04764e-06
2.22626e-07
2.04974e-06
-8.77133e-08
2.05722e-06
4.98239e-07
2.04217e-06
-7.87893e-07
2.03175e-06
-2.07207e-07
2.03192e-06
-6.6058e-08
2.05028e-06
6.41592e-07
2.06609e-06
5.83609e-07
2.07529e-06
3.51359e-07
2.06095e-06
-4.52265e-07
2.06304e-06
-5.72489e-08
2.03218e-06
-8.81493e-07
2.03486e-06
-2.18091e-07
2.01256e-06
-5.04229e-07
2.01863e-06
-1.88212e-07
2.00684e-06
-3.65807e-08
2.0205e-06
1.28737e-07
2.02138e-06
3.39872e-07
2.03164e-06
3.40117e-07
4.11817e-07
2.04277e-06
2.1457e-06
2.20924e-07
2.14757e-06
-8.95759e-08
2.15563e-06
4.9017e-07
2.14023e-06
-7.72488e-07
2.13012e-06
-1.97099e-07
2.12906e-06
-6.49937e-08
2.14826e-06
6.22387e-07
2.16403e-06
5.67836e-07
2.17404e-06
3.4135e-07
2.15904e-06
-4.37258e-07
2.1623e-06
-6.05114e-08
2.13015e-06
-8.4934e-07
2.13388e-06
-2.21821e-07
2.10871e-06
-4.79058e-07
2.11498e-06
-1.94484e-07
2.10184e-06
-2.34423e-08
2.1152e-06
1.15376e-07
2.1187e-06
3.36373e-07
2.127e-06
3.31821e-07
3.97348e-07
2.14146e-06
2.24839e-06
2.19022e-07
2.24999e-06
-9.11782e-08
2.25884e-06
4.81326e-07
2.24277e-06
-7.56426e-07
2.23297e-06
-1.87291e-07
2.23095e-06
-6.29766e-08
2.25076e-06
6.02577e-07
2.2661e-06
5.52494e-07
2.27717e-06
3.30284e-07
2.26144e-06
-4.21527e-07
2.26587e-06
-6.49473e-08
2.23251e-06
-8.15979e-07
2.23737e-06
-2.26679e-07
2.21003e-06
-4.51718e-07
2.21642e-06
-2.00876e-07
2.20258e-06
-9.60243e-09
2.21449e-06
1.03468e-07
2.2206e-06
3.30259e-07
2.22649e-06
3.25931e-07
3.80687e-07
2.24315e-06
2.35596e-06
2.16938e-07
2.35729e-06
-9.25037e-08
2.367e-06
4.71614e-07
2.35005e-06
-7.39479e-07
2.34054e-06
-1.77785e-07
2.33775e-06
-6.01833e-08
2.35817e-06
5.82154e-07
2.37285e-06
5.37822e-07
2.38509e-06
3.18044e-07
2.36858e-06
-4.05024e-07
2.3741e-06
-7.04654e-08
2.33962e-06
-7.81499e-07
2.3455e-06
-2.32556e-07
2.31661e-06
-4.22834e-07
2.32288e-06
-2.07146e-07
2.30907e-06
4.20452e-09
2.31858e-06
9.39606e-08
2.32738e-06
3.21464e-07
2.33099e-06
3.22319e-07
3.63162e-07
2.34851e-06
2.46867e-06
2.14661e-07
2.46969e-06
-9.35226e-08
2.48029e-06
4.61012e-07
2.46232e-06
-7.2151e-07
2.45318e-06
-1.68644e-07
2.44969e-06
-5.66894e-08
2.47085e-06
5.60994e-07
2.48472e-06
5.23949e-07
2.49814e-06
3.04626e-07
2.48083e-06
-3.87715e-07
2.48727e-06
-7.69066e-08
2.45181e-06
-7.4604e-07
2.45846e-06
-2.392e-07
2.42861e-06
-3.92987e-07
2.43438e-06
-2.12911e-07
2.42132e-06
1.72579e-08
2.42775e-06
8.75376e-08
2.43919e-06
3.1002e-07
2.44104e-06
3.20475e-07
3.45968e-07
2.45823e-06
2.5868e-06
2.1216e-07
2.58746e-06
-9.41897e-08
2.59893e-06
4.49542e-07
2.57988e-06
-7.02456e-07
2.57122e-06
-1.59987e-07
2.56701e-06
-5.24784e-08
2.58906e-06
5.38948e-07
2.60209e-06
5.10918e-07
2.61662e-06
2.90097e-07
2.59851e-06
-3.69608e-07
2.60566e-06
-8.40532e-08
2.56943e-06
-7.09814e-07
2.57648e-06
-2.46253e-07
2.54625e-06
-3.62758e-07
2.55103e-06
-2.17689e-07
2.53942e-06
2.8868e-08
2.54241e-06
8.4552e-08
2.55617e-06
2.96261e-07
2.55709e-06
3.19552e-07
3.30078e-07
2.57298e-06
2.71059e-06
2.09398e-07
2.71085e-06
-9.44508e-08
2.72316e-06
4.37232e-07
2.703e-06
-6.82298e-07
2.69499e-06
-1.51971e-07
2.68998e-06
-4.74707e-08
2.71303e-06
5.15899e-07
2.72523e-06
4.98714e-07
2.74075e-06
2.74577e-07
2.72191e-06
-3.50769e-07
2.72949e-06
-9.16307e-08
2.69279e-06
-6.73113e-07
2.69983e-06
-2.53293e-07
2.66979e-06
-3.32715e-07
2.67306e-06
-2.20962e-07
2.6635e-06
3.84289e-08
2.6631e-06
8.49509e-08
2.67853e-06
2.80835e-07
2.67951e-06
3.18568e-07
3.1614e-07
2.69345e-06
2.84033e-06
2.06339e-07
2.84012e-06
-9.42473e-08
2.85326e-06
4.24099e-07
2.83198e-06
-6.61025e-07
2.82477e-06
-1.44757e-07
2.81886e-06
-4.15641e-08
2.84297e-06
4.91788e-07
2.85441e-06
4.87276e-07
2.87077e-06
2.58221e-07
2.85135e-06
-3.31346e-07
2.85902e-06
-9.93044e-08
2.82222e-06
-6.36311e-07
2.82879e-06
-2.59864e-07
2.79944e-06
-3.03371e-07
2.80077e-06
-2.22289e-07
2.79368e-06
4.55206e-08
2.79031e-06
8.83185e-08
2.8066e-06
2.64547e-07
2.80858e-06
3.16591e-07
3.0448e-07
2.82024e-06
2.97628e-06
2.02953e-07
2.97555e-06
-9.3518e-08
2.98951e-06
4.10139e-07
2.96711e-06
-6.38622e-07
2.96085e-06
-1.38494e-07
2.95396e-06
-3.46731e-08
2.97913e-06
4.66617e-07
2.98989e-06
4.76509e-07
3.00688e-06
2.4123e-07
2.98711e-06
-3.11572e-07
2.99449e-06
-1.06686e-07
2.95802e-06
-5.99837e-07
2.96368e-06
-2.65532e-07
2.93548e-06
-2.75164e-07
2.93452e-06
-2.2133e-07
2.93007e-06
4.99701e-08
2.92439e-06
9.39977e-08
2.94074e-06
2.48197e-07
2.94444e-06
3.12893e-07
2.951e-07
2.95382e-06
3.11874e-06
1.99215e-07
3.11742e-06
-9.21971e-08
3.13224e-06
3.95321e-07
3.10868e-06
-6.15062e-07
3.10349e-06
-1.333e-07
3.09557e-06
-2.67528e-08
3.12174e-06
4.40448e-07
3.13196e-06
4.6629e-07
3.14934e-06
2.23847e-07
3.12952e-06
-2.91753e-07
3.13619e-06
-1.13352e-07
3.10046e-06
-5.64114e-07
3.10487e-06
-2.69943e-07
3.07813e-06
-2.48421e-07
3.07469e-06
-2.17891e-07
3.0728e-06
5.18653e-08
3.06556e-06
1.01235e-07
3.08132e-06
2.32437e-07
3.08714e-06
3.07072e-07
2.87703e-07
3.09454e-06
3.26802e-06
1.95108e-07
3.26603e-06
-9.02131e-08
3.28176e-06
3.79594e-07
3.25701e-06
-5.90316e-07
3.25297e-06
-1.29256e-07
3.24403e-06
-1.78101e-08
3.27107e-06
4.13403e-07
3.28091e-06
4.56452e-07
3.29839e-06
2.06372e-07
3.27891e-06
-2.72274e-07
3.28442e-06
-1.18866e-07
3.24982e-06
-5.29517e-07
3.25273e-06
-2.72849e-07
3.22766e-06
-2.23352e-07
3.22168e-06
-2.11914e-07
3.22207e-06
5.14788e-08
3.21401e-06
1.09291e-07
3.22862e-06
2.17827e-07
3.23676e-06
2.98934e-07
2.81816e-07
3.24265e-06
3.42442e-06
1.90618e-07
3.4217e-06
-8.74907e-08
3.43839e-06
3.629e-07
3.41245e-06
-5.64369e-07
3.40959e-06
-1.26399e-07
3.39968e-06
-7.9068e-09
3.42742e-06
3.85665e-07
3.4371e-06
4.46774e-07
3.45431e-06
1.89159e-07
3.4356e-06
-2.53559e-07
3.43958e-06
-1.22846e-07
3.40635e-06
-4.96289e-07
3.40764e-06
-2.74138e-07
3.38433e-06
-2.00036e-07
3.37588e-06
-2.03471e-07
3.37818e-06
4.91838e-08
3.36997e-06
1.17503e-07
3.38295e-06
2.04848e-07
3.39344e-06
2.88443e-07
2.76875e-07
3.39838e-06
3.58829e-06
1.85737e-07
3.58476e-06
-8.39563e-08
3.60247e-06
3.45188e-07
3.57534e-06
-5.37235e-07
3.57366e-06
-1.24719e-07
3.56291e-06
2.83989e-09
3.5911e-06
3.57479e-07
3.60089e-06
4.3698e-07
3.61745e-06
1.726e-07
3.59994e-06
-2.36052e-07
3.60208e-06
-1.24984e-07
3.57032e-06
-4.6453e-07
3.57002e-06
-2.73833e-07
3.54842e-06
-1.78441e-07
3.53769e-06
-1.92741e-07
3.54148e-06
4.53907e-08
3.53367e-06
1.25317e-07
3.54467e-06
1.93847e-07
3.55734e-06
2.75774e-07
2.72209e-07
3.562e-06
3.75999e-06
1.80453e-07
3.75558e-06
-7.95471e-08
3.77434e-06
3.26429e-07
3.74608e-06
-5.08972e-07
3.74551e-06
-1.24152e-07
3.7341e-06
1.42522e-08
3.76242e-06
3.29157e-07
3.77266e-06
4.26739e-07
3.78814e-06
1.57116e-07
3.77224e-06
-2.20145e-07
3.77239e-06
-1.25143e-07
3.74201e-06
-4.34141e-07
3.74027e-06
-2.72098e-07
3.72027e-06
-1.58439e-07
3.7075e-06
-1.79971e-07
3.71239e-06
4.05011e-08
3.70548e-06
1.32224e-07
3.71423e-06
1.85101e-07
3.72866e-06
2.61338e-07
2.67066e-07
3.73381e-06
3.93988e-06
1.7476e-07
3.93456e-06
-7.42219e-08
3.95435e-06
3.06636e-07
3.92507e-06
-4.79693e-07
3.92549e-06
-1.24573e-07
3.91365e-06
2.60889e-08
3.94174e-06
3.01073e-07
3.95279e-06
4.15685e-07
3.96679e-06
1.43117e-07
3.95276e-06
-2.06116e-07
3.95099e-06
-1.23373e-07
3.92174e-06
-4.04885e-07
3.91877e-06
-2.69134e-07
3.90027e-06
-1.39935e-07
3.88569e-06
-1.65389e-07
3.8913e-06
3.48929e-08
3.88574e-06
1.37779e-07
3.89213e-06
1.78715e-07
3.90765e-06
2.45811e-07
2.60717e-07
3.914e-06
4.12836e-06
1.68655e-07
4.1221e-06
-6.79686e-08
4.14287e-06
2.85872e-07
4.11274e-06
-4.49569e-07
4.11397e-06
-1.25798e-07
4.10201e-06
3.80405e-08
4.12943e-06
2.73661e-07
4.14169e-06
4.03423e-07
4.15383e-06
1.30973e-07
4.14179e-06
-1.9408e-07
4.13835e-06
-1.19932e-07
4.10991e-06
-3.7644e-07
4.10588e-06
-2.651e-07
4.08888e-06
-1.22938e-07
4.07266e-06
-1.4917e-07
4.0786e-06
2.89543e-08
4.07476e-06
1.41613e-07
4.07895e-06
1.74531e-07
4.09463e-06
2.30132e-07
2.52563e-07
4.10278e-06
4.32582e-06
1.62141e-07
4.31866e-06
-6.08092e-08
4.34027e-06
2.64256e-07
4.30953e-06
-4.1883e-07
4.31131e-06
-1.27575e-07
4.29962e-06
4.97334e-08
4.32589e-06
2.47389e-07
4.33974e-06
3.89579e-07
4.34976e-06
1.20948e-07
4.33963e-06
-1.83945e-07
4.33493e-06
-1.15231e-07
4.30694e-06
-3.48458e-07
4.30195e-06
-2.6011e-07
4.28653e-06
-1.07515e-07
4.26888e-06
-1.3152e-07
4.27468e-06
2.31576e-08
4.27289e-06
1.43405e-07
4.27524e-06
1.72175e-07
4.29006e-06
2.15315e-07
2.42291e-07
4.30033e-06
4.53268e-06
1.55231e-07
4.52468e-06
-5.28045e-08
4.54696e-06
2.41971e-07
4.51591e-06
-3.87773e-07
4.51792e-06
-1.29589e-07
4.50692e-06
6.07387e-08
4.53157e-06
2.22738e-07
4.54731e-06
3.73832e-07
4.55512e-06
1.13141e-07
4.54661e-06
-1.75433e-07
4.54112e-06
-1.09739e-07
4.51333e-06
-3.20676e-07
4.50738e-06
-2.54158e-07
4.49366e-06
-9.37964e-08
4.47482e-06
-1.12678e-07
4.47999e-06
1.79869e-08
4.48042e-06
1.42981e-07
4.48153e-06
1.71067e-07
4.49462e-06
2.02221e-07
2.3008e-07
4.50683e-06
4.74939e-06
1.47954e-07
4.74064e-06
-4.40573e-08
4.76335e-06
2.19268e-07
4.73234e-06
-3.56767e-07
4.73421e-06
-1.31459e-07
4.72436e-06
7.05913e-08
4.74693e-06
2.00166e-07
4.76475e-06
3.56017e-07
4.77048e-06
1.07406e-07
4.76314e-06
-1.68095e-07
4.75735e-06
-1.03947e-07
4.72958e-06
-2.92907e-07
4.72259e-06
-2.47171e-07
4.71067e-06
-8.18674e-08
4.691e-06
-9.30164e-08
4.69505e-06
1.39436e-08
4.69771e-06
1.40322e-07
4.69821e-06
1.70558e-07
4.70911e-06
1.91328e-07
2.1661e-07
4.72258e-06
4.9764e-06
1.40353e-07
4.96705e-06
-3.47126e-08
4.98984e-06
1.96477e-07
4.95933e-06
-3.26252e-07
4.96063e-06
-1.3276e-07
4.9524e-06
7.88228e-08
4.97251e-06
1.80051e-07
4.9923e-06
3.36227e-07
4.99637e-06
1.03335e-07
4.98972e-06
-1.61435e-07
4.98403e-06
-9.82583e-08
4.95622e-06
-2.65105e-07
4.94802e-06
-2.38972e-07
4.93794e-06
-7.17836e-08
4.91792e-06
-7.30001e-08
4.92038e-06
1.14851e-08
4.92512e-06
1.35582e-07
4.92567e-06
1.70015e-07
4.93433e-06
1.8266e-07
2.02915e-07
4.94803e-06
5.21418e-06
1.3249e-07
5.20443e-06
-2.49647e-08
5.22689e-06
1.74022e-07
5.19736e-06
-2.96731e-07
5.19768e-06
-1.33072e-07
5.19148e-06
8.50236e-08
5.20897e-06
1.62562e-07
5.23034e-06
3.14855e-07
5.2333e-06
1.00372e-07
5.22686e-06
-1.54995e-07
5.22156e-06
-9.29583e-08
5.19381e-06
-2.37355e-07
5.18414e-06
-2.29304e-07
5.1759e-06
-6.35456e-08
5.15604e-06
-5.31342e-08
5.15662e-06
1.09045e-08
5.1631e-06
1.29102e-07
5.16421e-06
1.68905e-07
5.17096e-06
1.7591e-07
1.89991e-07
5.18388e-06
5.46324e-06
1.24441e-07
5.45332e-06
-1.50498e-08
5.47489e-06
1.52456e-07
5.44693e-06
-2.68769e-07
5.44591e-06
-1.3205e-07
5.44201e-06
8.8918e-08
5.45704e-06
1.47532e-07
5.47941e-06
2.92488e-07
5.48174e-06
9.8044e-08
5.47514e-06
-1.48398e-07
5.47038e-06
-8.81959e-08
5.44286e-06
-2.09834e-07
5.4315e-06
-2.17944e-07
5.42498e-06
-5.70256e-08
5.4058e-06
-3.39523e-08
5.40437e-06
1.23299e-08
5.41213e-06
1.21338e-07
5.41422e-06
1.66818e-07
5.4195e-06
1.70635e-07
1.78482e-07
5.43101e-06
5.7241e-06
1.16294e-07
5.7143e-06
-5.24561e-09
5.73425e-06
1.32503e-07
5.70846e-06
-2.42978e-07
5.70597e-06
-1.29561e-07
5.70434e-06
9.05532e-08
5.71746e-06
1.34409e-07
5.74027e-06
2.69684e-07
5.74221e-06
9.60994e-08
5.73516e-06
-1.41349e-07
5.73089e-06
-8.3925e-08
5.70385e-06
-1.82797e-07
5.69063e-06
-2.04723e-07
5.68562e-06
-5.20108e-08
5.66767e-06
-1.6009e-08
5.66426e-06
1.57422e-08
5.67278e-06
1.12817e-07
5.67613e-06
1.63475e-07
5.68038e-06
1.66375e-07
1.68645e-07
5.69022e-06
5.99734e-06
1.08143e-07
5.98793e-06
4.16645e-09
6.0054e-06
1.15035e-07
5.98237e-06
-2.19951e-07
5.97866e-06
-1.25853e-07
5.97886e-06
9.03603e-08
5.99067e-06
1.22598e-07
6.01372e-06
2.46636e-07
6.01533e-06
9.44855e-08
6.00745e-06
-1.33471e-07
6.00346e-06
-7.99316e-08
5.97725e-06
-1.56587e-07
5.9621e-06
-1.89577e-07
5.95829e-06
-4.82018e-08
5.94217e-06
1.09908e-10
5.93696e-06
2.09597e-08
5.94564e-06
1.04136e-07
5.95042e-06
1.58693e-07
5.95408e-06
1.62715e-07
1.6042e-07
5.9623e-06
6.28356e-06
1.0007e-07
6.2748e-06
1.29248e-08
6.28944e-06
1.00399e-07
6.26906e-06
-1.99569e-07
6.26467e-06
-1.2147e-07
6.26614e-06
8.88915e-08
6.27692e-06
1.11825e-07
6.30007e-06
2.23479e-07
6.30133e-06
9.32248e-08
6.29218e-06
-1.24317e-07
6.28825e-06
-7.6004e-08
6.26335e-06
-1.31688e-07
6.24646e-06
-1.72686e-07
6.2436e-06
-4.534e-08
6.22979e-06
1.39173e-08
6.22314e-06
2.76183e-08
6.23132e-06
9.59513e-08
6.23761e-06
1.52398e-07
6.24111e-06
1.59215e-07
1.53653e-07
6.24788e-06
6.5834e-06
9.21375e-08
6.57553e-06
2.07997e-08
6.58792e-06
8.80027e-08
6.56905e-06
-1.80698e-07
6.56457e-06
-1.16992e-07
6.56688e-06
8.65811e-08
6.57608e-06
1.02629e-07
6.59855e-06
2.01011e-07
6.59943e-06
9.23398e-08
6.58901e-06
-1.1389e-07
6.58539e-06
-7.23854e-08
6.56258e-06
-1.08883e-07
6.54444e-06
-1.54543e-07
6.54222e-06
-4.31254e-08
6.53108e-06
2.50579e-08
6.52342e-06
3.52779e-08
6.53055e-06
8.88297e-08
6.53827e-06
1.44678e-07
6.54199e-06
1.55488e-07
1.48077e-07
6.54757e-06
6.89754e-06
8.43922e-08
6.89076e-06
2.75746e-08
6.90136e-06
7.74011e-08
6.88317e-06
-1.62502e-07
6.87877e-06
-1.1259e-07
6.88197e-06
8.3373e-08
6.88862e-06
9.59829e-08
6.90947e-06
1.80161e-07
6.911e-06
9.0806e-08
6.89928e-06
-1.02172e-07
6.89594e-06
-6.90426e-08
6.87576e-06
-8.87053e-08
6.85696e-06
-1.35739e-07
6.85496e-06
-4.11205e-08
6.84658e-06
3.34373e-08
6.83846e-06
4.33902e-08
6.84412e-06
8.31757e-08
6.85293e-06
1.3587e-07
6.85727e-06
1.51147e-07
1.43419e-07
6.86192e-06
7.22666e-06
7.68648e-08
7.22127e-06
3.29724e-08
7.23027e-06
6.83925e-08
7.21236e-06
-1.44592e-07
7.20779e-06
-1.08018e-07
7.21218e-06
7.89804e-08
7.21683e-06
9.13377e-08
7.23593e-06
1.61057e-07
7.23827e-06
8.84697e-08
7.22533e-06
-8.92275e-08
7.22151e-06
-6.52286e-08
7.20398e-06
-7.11765e-08
7.18498e-06
-1.16733e-07
7.18264e-06
-3.87798e-08
7.17688e-06
3.91922e-08
7.16892e-06
5.13492e-08
7.17285e-06
7.92529e-08
7.18218e-06
1.26534e-07
7.18745e-06
1.45877e-07
1.39336e-07
7.19154e-06
7.57152e-06
6.9566e-08
7.56789e-06
3.66116e-08
7.57534e-06
6.09335e-08
7.55767e-06
-1.26913e-07
7.55237e-06
-1.02722e-07
7.5586e-06
7.27445e-08
7.56164e-06
8.83052e-08
7.57884e-06
1.43858e-07
7.58179e-06
8.5513e-08
7.56789e-06
-7.53248e-08
7.56315e-06
-6.04899e-08
7.54805e-06
-5.60747e-08
7.52922e-06
-9.79031e-08
7.52615e-06
-3.57134e-08
7.5227e-06
4.26479e-08
7.51539e-06
5.86591e-08
7.5176e-06
7.70388e-08
7.52681e-06
1.17322e-07
7.53313e-06
1.39559e-07
1.35428e-07
7.53704e-06
7.9329e-06
6.24807e-08
7.93076e-06
3.87525e-08
7.93764e-06
5.40516e-08
7.91998e-06
-1.09253e-07
7.91407e-06
-9.68127e-08
7.92256e-06
6.42487e-08
7.92557e-06
8.52953e-08
7.94053e-06
1.28901e-07
7.94194e-06
8.41057e-08
7.92736e-06
-6.07497e-08
7.92178e-06
-5.49054e-08
7.90874e-06
-4.30332e-08
7.89039e-06
-7.95537e-08
7.88639e-06
-3.17188e-08
7.88472e-06
4.43207e-08
7.87853e-06
6.48497e-08
7.87921e-06
7.63562e-08
7.88773e-06
1.08799e-07
7.89496e-06
1.32334e-07
1.31302e-07
7.89908e-06
8.31158e-06
5.55821e-08
8.31028e-06
4.00486e-08
8.3182e-06
4.61343e-08
8.30083e-06
-9.18786e-08
8.29418e-06
-9.01653e-08
8.3041e-06
5.43292e-08
8.30773e-06
8.1663e-08
8.31755e-06
1.19083e-07
8.31823e-06
8.34222e-08
8.30444e-06
-4.69581e-08
8.29824e-06
-4.87093e-08
8.2868e-06
-3.15913e-08
8.2692e-06
-6.19528e-08
8.26414e-06
-2.66553e-08
8.26379e-06
4.46662e-08
8.25903e-06
6.96079e-08
8.25853e-06
7.68596e-08
8.26592e-06
1.01408e-07
8.27372e-06
1.24534e-07
1.26664e-07
8.27836e-06
8.70836e-06
4.88804e-08
8.70771e-06
4.0699e-08
8.71616e-06
3.76885e-08
8.70142e-06
-7.71355e-08
8.69139e-06
-8.01348e-08
8.69518e-06
5.05314e-08
8.69576e-06
8.10868e-08
8.70649e-06
1.08358e-07
8.71147e-06
7.84336e-08
8.69998e-06
-3.54675e-08
8.69327e-06
-4.20003e-08
8.68301e-06
-2.13242e-08
8.66636e-06
-4.53075e-08
8.66023e-06
-2.05242e-08
8.66074e-06
4.41541e-08
8.65759e-06
7.27657e-08
8.65639e-06
7.80531e-08
8.66243e-06
9.53654e-08
8.67038e-06
1.16587e-07
1.21388e-07
8.67566e-06
9.12412e-06
4.23841e-08
9.12401e-06
4.08071e-08
9.13152e-06
3.01717e-08
9.11627e-06
-6.18815e-08
9.1012e-06
-6.50671e-08
9.10659e-06
4.51434e-08
9.11061e-06
7.70654e-08
9.11985e-06
9.91184e-08
9.12431e-06
7.39718e-08
9.11434e-06
-2.54975e-08
9.10747e-06
-3.51273e-08
9.09829e-06
-1.21457e-08
9.08276e-06
-2.97731e-08
9.07569e-06
-1.34572e-08
9.07655e-06
4.32905e-08
9.075e-06
7.43218e-08
9.07359e-06
7.9461e-08
9.07826e-06
9.06924e-08
9.08594e-06
1.08915e-07
1.15555e-07
9.09177e-06
9.5597e-06
3.61399e-08
9.55957e-06
4.09436e-08
9.56616e-06
2.3584e-08
9.55315e-06
-4.88717e-08
9.53812e-06
-5.00432e-08
9.54169e-06
4.15719e-08
9.54617e-06
7.25839e-08
9.554e-06
9.1288e-08
9.55752e-06
7.04606e-08
9.54841e-06
-1.639e-08
9.54161e-06
-2.83252e-08
9.53359e-06
-4.12925e-09
9.5193e-06
-1.54852e-08
9.51151e-06
-5.6605e-09
9.51226e-06
4.25361e-08
9.51212e-06
7.44595e-08
9.51094e-06
8.06456e-08
9.51436e-06
8.72737e-08
9.52141e-06
1.01865e-07
1.09349e-07
9.52761e-06
1.0016e-05
3.02353e-08
1.00159e-05
4.10989e-08
1.00217e-05
1.78081e-08
1.00119e-05
-3.91394e-08
9.99644e-06
-3.45589e-08
9.99774e-06
4.02787e-08
1.00023e-05
6.80088e-08
1.00094e-05
8.42213e-08
1.00119e-05
6.79094e-08
1.00033e-05
-7.71449e-09
9.99658e-06
-2.16464e-08
9.98972e-06
2.7215e-09
9.97694e-06
-2.69952e-09
9.96865e-06
2.6281e-09
9.96891e-06
4.2275e-08
9.96987e-06
7.35041e-08
9.96925e-06
8.12656e-08
9.97166e-06
8.48564e-08
9.97787e-06
9.56598e-08
1.03023e-07
9.98419e-06
1.04941e-05
2.4769e-08
1.04944e-05
4.08282e-08
1.04988e-05
1.34221e-08
1.04922e-05
-3.26252e-08
1.04771e-05
-1.93769e-08
1.04759e-05
4.14907e-08
1.048e-05
6.38656e-08
1.04867e-05
7.75321e-08
1.04886e-05
6.6031e-08
1.04801e-05
7.58189e-10
1.04734e-05
-1.49678e-08
1.04676e-05
8.54909e-09
1.04565e-05
8.38076e-09
1.04481e-05
1.10663e-08
1.04476e-05
4.27125e-08
1.04493e-05
7.1844e-08
1.04494e-05
8.11538e-08
1.04512e-05
8.30347e-08
1.04565e-05
9.04199e-08
9.68535e-08
1.04626e-05
1.09949e-05
1.98397e-08
1.09959e-05
3.98999e-08
1.09986e-05
1.06706e-08
1.09946e-05
-2.85625e-08
1.09806e-05
-5.39357e-09
1.09772e-05
4.48865e-08
1.09804e-05
6.06204e-08
1.09868e-05
7.11607e-08
1.09884e-05
6.44164e-08
1.09801e-05
9.08222e-09
1.09732e-05
-8.08763e-09
1.09683e-05
1.3475e-08
1.09589e-05
1.77724e-08
1.09507e-05
1.92233e-08
1.09496e-05
4.38731e-08
1.09515e-05
6.98997e-08
1.09524e-05
8.02859e-08
1.09539e-05
8.14953e-08
1.09583e-05
8.60439e-08
9.11105e-08
1.0964e-05
1.15197e-05
1.55389e-08
1.15213e-05
3.82697e-08
1.15223e-05
9.63107e-09
1.15195e-05
-2.57632e-08
1.15076e-05
6.55413e-09
1.15028e-05
4.96329e-08
1.15048e-05
5.86277e-08
1.15108e-05
6.52435e-08
1.15124e-05
6.27554e-08
1.15044e-05
1.70652e-08
1.14972e-05
-8.54877e-10
1.14929e-05
1.7754e-08
1.14852e-05
2.55172e-08
1.14776e-05
2.67724e-08
1.14759e-05
4.56293e-08
1.14778e-05
6.79979e-08
1.14793e-05
7.88021e-08
1.14808e-05
7.99417e-08
1.14845e-05
8.23867e-08
8.59239e-08
1.14896e-05
1.20694e-05
1.19651e-08
1.20716e-05
3.60313e-08
1.20708e-05
1.05123e-08
1.2068e-05
-2.30047e-08
1.2059e-05
1.55761e-08
1.2054e-05
5.46475e-08
1.20545e-05
5.80376e-08
1.20597e-05
6.0119e-08
1.20616e-05
6.08483e-08
1.20542e-05
2.44487e-08
1.20466e-05
6.69732e-09
1.20427e-05
2.17185e-08
1.20364e-05
3.1768e-08
1.20297e-05
3.34765e-08
1.20276e-05
4.77354e-08
1.20292e-05
6.63662e-08
1.20312e-05
7.68703e-08
1.20329e-05
7.81971e-08
1.2036e-05
7.92665e-08
8.13267e-08
1.20406e-05
1.26453e-05
9.20761e-09
1.26477e-05
3.36335e-08
1.26444e-05
1.38245e-08
1.26414e-05
-1.99317e-08
1.26361e-05
2.0874e-08
1.26317e-05
5.90317e-08
1.26309e-05
5.88465e-08
1.26349e-05
5.61326e-08
1.2637e-05
5.87488e-08
1.26305e-05
3.092e-08
1.26228e-05
1.43509e-08
1.26188e-05
2.57197e-08
1.26139e-05
3.6708e-08
1.26082e-05
3.91781e-08
1.26059e-05
4.99778e-08
1.26073e-05
6.50225e-08
1.26094e-05
7.47447e-08
1.26114e-05
7.62263e-08
1.26142e-05
7.64712e-08
7.72931e-08
1.26182e-05
1.32488e-05
7.29905e-09
1.32508e-05
3.16532e-08
1.32461e-05
1.8571e-08
1.32424e-05
-1.62162e-08
1.32402e-05
2.30102e-08
1.32371e-05
6.21389e-08
1.32351e-05
6.08689e-08
1.32377e-05
5.35696e-08
1.32398e-05
5.65918e-08
1.32344e-05
3.63216e-08
1.3227e-05
2.18003e-08
1.32228e-05
2.98639e-08
1.32188e-05
4.06839e-08
1.32142e-05
4.38541e-08
1.3212e-05
5.21235e-08
1.32131e-05
6.39651e-08
1.32153e-05
7.25465e-08
1.32174e-05
7.40932e-08
1.32201e-05
7.38161e-08
7.37556e-08
1.32236e-05
1.38813e-05
6.1273e-09
1.38837e-05
2.92551e-08
1.38784e-05
2.39518e-08
1.38731e-05
-1.09862e-08
1.38728e-05
2.33586e-08
1.38713e-05
6.36089e-08
1.38686e-05
6.36138e-08
1.38696e-05
5.25778e-08
1.38715e-05
5.4674e-08
1.38672e-05
4.0601e-08
1.38602e-05
2.87486e-08
1.3856e-05
3.40688e-08
1.38527e-05
4.40517e-08
1.38489e-05
4.75928e-08
1.38471e-05
5.39888e-08
1.38479e-05
6.31235e-08
1.38501e-05
7.03362e-08
1.38523e-05
7.18845e-08
1.38549e-05
7.11985e-08
7.05798e-08
1.38581e-05
1.45442e-05
5.55374e-09
1.45466e-05
2.68933e-08
1.45417e-05
2.886e-08
1.4535e-05
-4.33004e-09
1.45352e-05
2.32345e-08
1.45354e-05
6.33462e-08
1.45326e-05
6.64437e-08
1.4532e-05
5.31393e-08
1.45333e-05
5.33559e-08
1.45301e-05
4.38082e-08
1.4524e-05
3.49345e-08
1.45198e-05
3.82408e-08
1.45169e-05
4.69824e-08
1.45139e-05
5.05578e-08
1.45124e-05
5.54896e-08
1.45131e-05
6.23797e-08
1.45153e-05
6.81893e-08
1.45175e-05
6.96287e-08
1.45201e-05
6.86192e-08
6.76068e-08
1.45231e-05
1.5239e-05
5.40103e-09
1.52414e-05
2.44949e-08
1.52373e-05
3.29987e-08
1.52295e-05
3.45783e-09
1.5229e-05
2.37071e-08
1.52308e-05
6.16008e-08
1.52285e-05
6.87662e-08
1.52266e-05
5.49482e-08
1.52271e-05
5.29374e-08
1.52247e-05
4.62069e-08
1.52195e-05
4.01364e-08
1.52155e-05
4.22523e-08
1.52129e-05
4.95477e-08
1.52106e-05
5.28964e-08
1.52094e-05
5.666e-08
1.52101e-05
6.16271e-08
1.52122e-05
6.61153e-08
1.52145e-05
6.73382e-08
1.5217e-05
6.61041e-08
6.47373e-08
1.52199e-05
1.59672e-05
5.48817e-09
1.59693e-05
2.23946e-08
1.59662e-05
3.60966e-08
1.59579e-05
1.17911e-08
1.59562e-05
2.54049e-08
1.59589e-05
5.8956e-08
1.59575e-05
7.01416e-08
1.59549e-05
5.75316e-08
1.59543e-05
5.35309e-08
1.59523e-05
4.81765e-08
1.59481e-05
4.43267e-08
1.59446e-05
4.58391e-08
1.59423e-05
5.18521e-08
1.59405e-05
5.47029e-08
1.59396e-05
5.75112e-08
1.59404e-05
6.08457e-08
1.59424e-05
6.40939e-08
1.59447e-05
6.50311e-08
1.59472e-05
6.36388e-08
6.19472e-08
1.595e-05
1.67304e-05
5.67706e-09
1.67317e-05
2.11238e-08
1.67297e-05
3.8051e-08
1.67216e-05
1.98782e-08
1.67186e-05
2.84679e-08
1.67214e-05
5.61759e-08
1.67211e-05
7.04003e-08
1.67183e-05
6.03522e-08
1.67168e-05
5.50427e-08
1.67149e-05
5.00726e-08
1.67115e-05
4.76645e-08
1.67086e-05
4.88146e-08
1.67066e-05
5.38315e-08
1.67052e-05
5.6105e-08
1.67047e-05
5.80046e-08
1.67054e-05
6.00828e-08
1.67074e-05
6.21053e-08
1.67098e-05
6.27012e-08
1.67122e-05
6.12081e-08
5.92377e-08
1.67149e-05
1.75302e-05
5.85616e-09
1.75307e-05
2.05603e-08
1.75295e-05
3.92995e-08
1.75222e-05
2.71956e-08
1.75179e-05
3.27255e-08
1.75201e-05
5.39816e-08
1.75209e-05
6.96424e-08
1.75183e-05
6.28995e-08
1.75161e-05
5.72643e-08
1.75141e-05
5.20784e-08
1.75114e-05
5.04046e-08
1.7509e-05
5.11892e-08
1.75075e-05
5.53273e-08
1.75064e-05
5.71835e-08
1.75062e-05
5.81785e-08
1.7507e-05
5.92685e-08
1.7509e-05
6.02028e-08
1.75113e-05
6.0327e-08
1.75137e-05
5.88116e-08
5.6598e-08
1.75164e-05
1.83682e-05
5.9831e-09
1.8368e-05
2.07495e-08
1.83672e-05
4.01229e-08
1.8361e-05
3.34077e-08
1.8356e-05
3.76905e-08
1.83571e-05
5.28818e-08
1.83585e-05
6.826e-08
1.83566e-05
6.48095e-08
1.8354e-05
5.98476e-08
1.83518e-05
5.42871e-08
1.83495e-05
5.27438e-08
1.83476e-05
5.30832e-08
1.83466e-05
5.63325e-08
1.83459e-05
5.78128e-08
1.8346e-05
5.81609e-08
1.83469e-05
5.83277e-08
1.83487e-05
5.83967e-08
1.83511e-05
5.79372e-08
1.83535e-05
5.64043e-08
5.40282e-08
1.83561e-05
1.92463e-05
6.05715e-09
1.92455e-05
2.15207e-08
1.92448e-05
4.08927e-08
1.92398e-05
3.84226e-08
1.92346e-05
4.28491e-08
1.92345e-05
5.29977e-08