/*--------------------------------*- C++ -*----------------------------------*\
| =========                 |                                                 |
| \\      /  F ield         | OpenFOAM: The Open Source CFD Toolbox           |
|  \\    /   O peration     | Version:  3.0.1                                 |
|   \\  /    A nd           | Web:      www.OpenFOAM.org                      |
|    \\/     M anipulation  |                                                 |
\*---------------------------------------------------------------------------*/
FoamFile
{
    version     2.0;
    format      ascii;
    class       volVectorField;
    location    "3.3";
    object      U;
}
// * * * * * * * * * * * * * * * * * * * * * * * * * * * * * * * * * * * * * //

dimensions      [0 1 -1 0 0 0 0];

internalField   nonuniform List<vector> 
9600
(
(0.899938 0.00205376 0)
(1.09637 -0.000964236 0)
(0.909402 0.00549072 0)
(1.0502 -0.0128589 0)
(0.889713 0.000570011 0)
(1.1562 0.000238326 0)
(0.894278 0.00608386 0)
(1.03733 0.0122679 0)
(0.926683 0.00809101 0)
(0.998871 -0.0134496 0)
(0.893737 0.00251569 0)
(1.0658 -0.0297134 0)
(0.855117 -0.000814556 0)
(1.12335 -0.017707 0)
(0.833224 -0.00301518 0)
(1.15941 -0.00260021 0)
(0.81252 0.00415121 0)
(1.15503 0.0143799 0)
(0.823654 0.0121997 0)
(1.11158 0.0183218 0)
(0.906947 0.00201963 0)
(1.0868 -0.00090636 0)
(0.916875 0.00571616 0)
(1.04038 -0.0124953 0)
(0.896046 -0.000701991 0)
(1.14196 0.000386152 0)
(0.906337 0.00716216 0)
(1.0224 0.0121311 0)
(0.940634 0.00846335 0)
(0.989078 -0.0126938 0)
(0.912978 0.000982133 0)
(1.0417 -0.0285095 0)
(0.87851 -0.00274182 0)
(1.08766 -0.0167287 0)
(0.867571 -0.00462523 0)
(1.11261 -0.00153126 0)
(0.871364 0.0045071 0)
(1.08171 0.0133578 0)
(0.926112 0.0147902 0)
(0.989699 0.0163964 0)
(0.920513 0.0020116 0)
(1.07003 -0.000856893 0)
(0.930467 0.00598076 0)
(1.02831 -0.0122608 0)
(0.910322 -0.00167722 0)
(1.11562 0.00045074 0)
(0.929656 0.00835609 0)
(0.999202 0.0118711 0)
(0.956671 0.0087433 0)
(0.982182 -0.0123708 0)
(0.936204 0.000259488 0)
(1.02137 -0.0279 0)
(0.914388 -0.00367675 0)
(1.05064 -0.0164567 0)
(0.92078 -0.00510859 0)
(1.05603 -0.0018379 0)
(0.9389 0.00490834 0)
(1.01572 0.0122835 0)
(0.976307 0.0167516 0)
(0.962563 0.0164723 0)
(0.938095 0.00204066 0)
(1.05018 -0.000832374 0)
(0.947362 0.00618947 0)
(1.01757 -0.0120462 0)
(0.929379 -0.00244094 0)
(1.08398 0.000343352 0)
(0.955618 0.00942538 0)
(0.981133 0.0116999 0)
(0.969625 0.00877202 0)
(0.981554 -0.0120949 0)
(0.955928 -0.000347533 0)
(1.00687 -0.0275071 0)
(0.94588 -0.00426672 0)
(1.02486 -0.0165953 0)
(0.9625 -0.005119 0)
(1.02148 -0.00225323 0)
(0.978609 0.00573837 0)
(0.99247 0.0120075 0)
(0.986686 0.0174351 0)
(0.971815 0.0177554 0)
(0.956253 0.00209253 0)
(1.03156 -0.000825569 0)
(0.96425 0.00634151 0)
(1.01036 -0.0118346 0)
(0.948256 -0.0030268 0)
(1.05427 0.000110288 0)
(0.976409 0.0103833 0)
(0.974778 0.0116854 0)
(0.979963 0.0086396 0)
(0.985902 -0.0118776 0)
(0.970173 -0.000757605 0)
(0.999714 -0.0272219 0)
(0.965701 -0.00474037 0)
(1.0111 -0.016838 0)
(0.984444 -0.00498525 0)
(1.0078 -0.00262326 0)
(0.994027 0.00649454 0)
(0.991214 0.0121142 0)
(0.988783 0.0176873 0)
(0.979886 0.0190702 0)
(0.971991 0.002152 0)
(1.01724 -0.000825664 0)
(0.978572 0.00642504 0)
(1.00691 -0.0116446 0)
(0.963455 -0.00340144 0)
(1.03085 -0.000148462 0)
(0.989182 0.0111263 0)
(0.977936 0.0117589 0)
(0.989297 0.00842628 0)
(0.992223 -0.011698 0)
(0.980334 -0.00101206 0)
(0.997853 -0.0269513 0)
(0.975474 -0.00513326 0)
(1.00397 -0.0170465 0)
(0.992632 -0.00498053 0)
(1.00277 -0.00278726 0)
(0.997618 0.00685557 0)
(0.992693 0.0123662 0)
(0.990167 0.0179322 0)
(0.983569 0.0200301 0)
(0.983698 0.00220557 0)
(1.00813 -0.000829786 0)
(0.98925 0.00643557 0)
(1.00592 -0.0114631 0)
(0.974069 -0.00357922 0)
(1.01457 -0.00039099 0)
(0.995109 0.0115843 0)
(0.985043 0.0118252 0)
(0.99797 0.00819433 0)
(0.998356 -0.0115051 0)
(0.988077 -0.00115145 0)
(0.998556 -0.0266241 0)
(0.979754 -0.00542358 0)
(0.999358 -0.0172289 0)
(0.993846 -0.00505739 0)
(0.999346 -0.0028092 0)
(0.996661 0.0069243 0)
(0.992092 0.0127981 0)
(0.990384 0.0180325 0)
(0.985241 0.0206974 0)
(0.991298 0.00224387 0)
(1.00329 -0.000839014 0)
(0.99647 0.0063914 0)
(1.00578 -0.0112757 0)
(0.981 -0.00361435 0)
(1.00418 -0.000602345 0)
(0.996825 0.0117849 0)
(0.991985 0.0118215 0)
(1.00536 0.00797413 0)
(1.00328 -0.0112805 0)
(0.994303 -0.00122197 0)
(0.99995 -0.0261973 0)
(0.982055 -0.00562619 0)
(0.995753 -0.017329 0)
(0.99214 -0.00517414 0)
(0.995681 -0.00277729 0)
(0.994171 0.00691745 0)
(0.990348 0.0133051 0)
(0.989947 0.0179121 0)
(0.986546 0.021239 0)
(0.995709 0.00226458 0)
(1.00108 -0.000854074 0)
(1.001 0.00631789 0)
(1.00548 -0.0110825 0)
(0.985611 -0.00355461 0)
(0.997972 -0.000768465 0)
(0.996651 0.0117916 0)
(0.997192 0.0117286 0)
(1.01093 0.00777164 0)
(1.00668 -0.0110299 0)
(0.999272 -0.00125013 0)
(1.00124 -0.0256683 0)
(0.984013 -0.00576549 0)
(0.992966 -0.0172921 0)
(0.989637 -0.00532288 0)
(0.991879 -0.00267674 0)
(0.991403 0.00684179 0)
(0.988713 0.0137526 0)
(0.989875 0.0176511 0)
(0.988369 0.0216641 0)
(0.998093 0.00227099 0)
(1.00013 -0.000874734 0)
(1.00367 0.00623358 0)
(1.00481 -0.0108878 0)
(0.988893 -0.00343455 0)
(0.994546 -0.000886526 0)
(0.996001 0.011664 0)
(1.00061 0.0115548 0)
(1.01465 0.0075843 0)
(1.0087 -0.010764 0)
(1.00298 -0.00125546 0)
(1.00225 -0.025056 0)
(0.986006 -0.00584828 0)
(0.991062 -0.0170936 0)
(0.987375 -0.00549373 0)
(0.9884 -0.0024857 0)
(0.988898 0.00661976 0)
(0.987639 0.0141108 0)
(0.990467 0.0172884 0)
(0.990762 0.0218746 0)
(0.999359 0.0022678 0)
(0.99969 -0.000899211 0)
(1.0051 0.00614788 0)
(1.00401 -0.0106934 0)
(0.991318 -0.00328952 0)
(0.992913 -0.000962559 0)
(0.995486 0.0114488 0)
(1.00262 0.0113197 0)
(1.01679 0.00740709 0)
(1.00966 -0.0104871 0)
(1.00543 -0.00125676 0)
(1.003 -0.0243765 0)
(0.987896 -0.00589652 0)
(0.990013 -0.016733 0)
(0.985758 -0.00568581 0)
(0.985608 -0.00223109 0)
(0.986858 0.00624194 0)
(0.987032 0.0143752 0)
(0.99137 0.0168258 0)
(0.993193 0.0218208 0)
(1.00004 0.00225854 0)
(0.999446 -0.000924749 0)
(1.00579 0.00606304 0)
(1.00337 -0.0105001 0)
(0.993057 -0.00313992 0)
(0.992358 -0.0010042 0)
(0.995225 0.0111792 0)
(1.0036 0.0110469 0)
(1.01773 0.00723276 0)
(1.00996 -0.0101982 0)
(1.0068 -0.00127053 0)
(1.00356 -0.0236466 0)
(0.989479 -0.00594414 0)
(0.989657 -0.0162288 0)
(0.984846 -0.00588281 0)
(0.983659 -0.00190205 0)
(0.985337 0.00575122 0)
(0.986634 0.0145271 0)
(0.992101 0.0163109 0)
(0.995062 0.0215165 0)
(1.00041 0.0022453 0)
(0.999305 -0.000948951 0)
(1.00604 0.00597661 0)
(1.00302 -0.0103069 0)
(0.994206 -0.00299199 0)
(0.992365 -0.0010177 0)
(0.995148 0.010878 0)
(1.00386 0.0107565 0)
(1.01784 0.00705415 0)
(1.00989 -0.00989778 0)
(1.00735 -0.00130647 0)
(1.00397 -0.0228807 0)
(0.990666 -0.00600942 0)
(0.989749 -0.0155929 0)
(0.984541 -0.00609335 0)
(0.982511 -0.0014982 0)
(0.984336 0.00520001 0)
(0.986272 0.0145549 0)
(0.992408 0.0158196 0)
(0.996082 0.0209937 0)
(1.00058 0.00222924 0)
(0.99923 -0.000970612 0)
(1.00608 0.00588476 0)
(1.00293 -0.0101104 0)
(0.994881 -0.00284804 0)
(0.992592 -0.00100993 0)
(0.995175 0.0105604 0)
(1.00365 0.0104627 0)
(1.01744 0.00686325 0)
(1.00964 -0.00958319 0)
(1.00741 -0.00137145 0)
(1.00424 -0.0220792 0)
(0.991505 -0.0061 0)
(0.990047 -0.0148579 0)
(0.984685 -0.00631292 0)
(0.981995 -0.00104431 0)
(0.98382 0.00464669 0)
(0.985922 0.0144517 0)
(0.992311 0.0154111 0)
(0.996335 0.0202943 0)
(1.00064 0.00221105 0)
(0.999201 -0.000989559 0)
(1.00601 0.0057846 0)
(1.003 -0.009907 0)
(0.995226 -0.00270795 0)
(0.992858 -0.000985945 0)
(0.995276 0.0102338 0)
(1.00324 0.0101746 0)
(1.0168 0.00665395 0)
(1.00934 -0.00925119 0)
(1.00719 -0.00146623 0)
(1.00441 -0.0212425 0)
(0.992106 -0.00622349 0)
(0.990379 -0.014051 0)
(0.985116 -0.00653706 0)
(0.981902 -0.000551034 0)
(0.983697 0.00414975 0)
(0.985631 0.0142145 0)
(0.991966 0.0151168 0)
(0.996097 0.0194699 0)
(1.00064 0.00219105 0)
(0.999202 -0.00100568 0)
(1.0059 0.00567428 0)
(1.00312 -0.00969324 0)
(0.995378 -0.00257152 0)
(0.993097 -0.000948671 0)
(0.99544 0.00989815 0)
(1.00279 0.00989914 0)
(1.01608 0.006422 0)
(1.00903 -0.00890167 0)
(1.00687 -0.00158694 0)
(1.00448 -0.0203735 0)
(0.992565 -0.00638043 0)
(0.990661 -0.01319 0)
(0.985705 -0.00675573 0)
(0.982053 -4.12124e-05 0)
(0.983841 0.00374146 0)
(0.985444 0.01385 0)
(0.991518 0.0149464 0)
(0.995634 0.0185878 0)
(1.00061 0.00216916 0)
(0.999226 -0.00101858 0)
(1.00577 0.00555317 0)
(1.00323 -0.00946714 0)
(0.995444 -0.00243926 0)
(0.993308 -0.00090009 0)
(0.995654 0.00955083 0)
(1.0024 0.00963988 0)
(1.01538 0.00616511 0)
(1.00875 -0.00853293 0)
(1.0065 -0.00173341 0)
(1.00448 -0.0194742 0)
(0.992943 -0.00656282 0)
(0.990869 -0.0122944 0)
(0.986362 -0.00695339 0)
(0.982337 0.00044976 0)
(0.984136 0.00344512 0)
(0.985383 0.0133716 0)
(0.991064 0.014873 0)
(0.99513 0.0177151 0)
(1.00058 0.00214523 0)
(0.99927 -0.00102809 0)
(1.00562 0.00542184 0)
(1.00329 -0.00922786 0)
(0.995492 -0.00231253 0)
(0.993515 -0.000841187 0)
(0.995893 0.00919013 0)
(1.00212 0.00939564 0)
(1.01472 0.00588622 0)
(1.00849 -0.00814711 0)
(1.00612 -0.0018988 0)
(1.00445 -0.0185536 0)
(0.993274 -0.00675768 0)
(0.991006 -0.011383 0)
(0.987035 -0.00711999 0)
(0.982703 0.000892631 0)
(0.984513 0.00328605 0)
(0.985469 0.0128031 0)
(0.99068 0.0148477 0)
(0.994701 0.0168946 0)
(1.00054 0.00211888 0)
(0.999338 -0.0010336 0)
(1.00546 0.00528043 0)
(1.00331 -0.00897422 0)
(0.995552 -0.00219409 0)
(0.993737 -0.000771047 0)
(0.996131 0.00881405 0)
(1.00193 0.00916657 0)
(1.01413 0.00558609 0)
(1.00827 -0.00774575 0)
(1.00574 -0.00207728 0)
(1.00438 -0.0176148 0)
(0.993577 -0.00695903 0)
(0.99109 -0.0104662 0)
(0.987691 -0.00725743 0)
(0.983141 0.00125854 0)
(0.98494 0.00326587 0)
(0.985721 0.0121672 0)
(0.990423 0.0148199 0)
(0.994413 0.016155 0)
(1.00048 0.0020897 0)
(0.999432 -0.00103445 0)
(1.00527 0.00512926 0)
(1.0033 -0.00870642 0)
(0.995629 -0.00208569 0)
(0.993988 -0.000687727 0)
(0.996351 0.00841975 0)
(1.00181 0.00895498 0)
(1.01357 0.00526458 0)
(1.00806 -0.00732807 0)
(1.00536 -0.00226277 0)
(1.00429 -0.016671 0)
(0.993866 -0.00715193 0)
(0.991142 -0.00956284 0)
(0.988311 -0.00733754 0)
(0.98365 0.00153002 0)
(0.985401 0.00336535 0)
(0.986142 0.0114891 0)
(0.990324 0.0147499 0)
(0.99429 0.0155208 0)
(1.00041 0.00205747 0)
(0.999554 -0.00103009 0)
(1.00506 0.0049682 0)
(1.00328 -0.00842382 0)
(0.995711 -0.00199036 0)
(0.994268 -0.000588288 0)
(0.996545 0.00800493 0)
(1.00174 0.00875764 0)
(1.01303 0.00493145 0)
(1.00787 -0.00690248 0)
(1.00499 -0.0024444 0)
(1.0042 -0.0157351 0)
(0.994148 -0.0073217 0)
(0.991185 -0.00870204 0)
(0.988887 -0.00732775 0)
(0.984224 0.0017131 0)
(0.98588 0.00355548 0)
(0.986704 0.0107982 0)
(0.990381 0.014613 0)
(0.994304 0.0150047 0)
(1.00031 0.00202182 0)
(0.999699 -0.00101941 0)
(1.00482 0.00479636 0)
(1.00326 -0.00812602 0)
(0.99579 -0.00190991 0)
(0.99457 -0.000473103 0)
(0.996718 0.00757331 0)
(1.0017 0.00856869 0)
(1.0125 0.00459023 0)
(1.00769 -0.00647353 0)
(1.00461 -0.00261122 0)
(1.00409 -0.0148191 0)
(0.994426 -0.00745755 0)
(0.991233 -0.0078851 0)
(0.989418 -0.00724111 0)
(0.984853 0.00181483 0)
(0.986361 0.00380904 0)
(0.987365 0.0101197 0)
(0.990564 0.0143883 0)
(0.994406 0.0146012 0)
(1.00019 0.0019824 0)
(0.999857 -0.00100162 0)
(1.00457 0.00461408 0)
(1.00323 -0.00781304 0)
(0.995864 -0.00184604 0)
(0.99488 -0.000341028 0)
(0.996876 0.00712477 0)
(1.00166 0.0083913 0)
(1.01196 0.00424339 0)
(1.00752 -0.00604467 0)
(1.00422 -0.0027531 0)
(1.00397 -0.01393 0)
(0.994707 -0.00755026 0)
(0.991291 -0.00710911 0)
(0.989912 -0.00707929 0)
(0.985529 0.00184265 0)
(0.986833 0.00410232 0)
(0.988076 0.00947857 0)
(0.990843 0.0140681 0)
(0.994545 0.0142906 0)
(1.00007 0.00193928 0)
(1.00002 -0.000976488 0)
(1.00432 0.00442174 0)
(1.0032 -0.00748354 0)
(0.995939 -0.00179914 0)
(0.995186 -0.000193764 0)
(0.997031 0.00666362 0)
(1.00163 0.00821874 0)
(1.01143 0.00389667 0)
(1.00734 -0.00562955 0)
(1.00384 -0.00286201 0)
(1.00385 -0.013072 0)
(0.994995 -0.00760176 0)
(0.991362 -0.00638478 0)
(0.990374 -0.00683968 0)
(0.986243 0.00180021 0)
(0.987294 0.0044154 0)
(0.988798 0.00888992 0)
(0.991194 0.0136421 0)
(0.994686 0.0140427 0)
(0.99996 0.00189253 0)
(1.00016 -0.000943141 0)
(1.00407 0.00421758 0)
(1.00316 -0.00713708 0)
(0.996025 -0.00176912 0)
(0.995476 -3.31348e-05 0)
(0.997191 0.00619356 0)
(1.00159 0.0080452 0)
(1.0109 0.00355847 0)
(1.00716 -0.00523715 0)
(1.00348 -0.00292448 0)
(1.00371 -0.0122573 0)
(0.995299 -0.00760976 0)
(0.991445 -0.00570734 0)
(0.990811 -0.00652258 0)
(0.986988 0.00169449 0)
(0.987746 0.00473543 0)
(0.989501 0.00836928 0)
(0.991604 0.0131037 0)
(0.994814 0.0138346 0)
(0.999867 0.00184128 0)
(1.00029 -0.000899359 0)
(1.00383 0.00399971 0)
(1.00311 -0.0067758 0)
(0.996131 -0.00175401 0)
(0.995744 0.000140227 0)
(0.997361 0.00571716 0)
(1.00154 0.00786764 0)
(1.01039 0.00323871 0)
(1.00697 -0.00488074 0)
(1.00313 -0.00293797 0)
(1.00355 -0.0114705 0)
(0.995622 -0.00758116 0)
(0.991543 -0.00508129 0)
(0.991224 -0.00614019 0)
(0.987757 0.00153427 0)
(0.988198 0.00504241 0)
(0.990163 0.00794017 0)
(0.992069 0.0124626 0)
(0.994936 0.0136372 0)
(0.999798 0.00178606 0)
(1.00039 -0.00084585 0)
(1.00361 0.00376928 0)
(1.00303 -0.00640163 0)
(0.996261 -0.00175393 0)
(0.99599 0.00032057 0)
(0.997546 0.00524187 0)
(1.00147 0.00767246 0)
(1.00988 0.00294527 0)
(1.00677 -0.00457105 0)
(1.0028 -0.00290527 0)
(1.00337 -0.0107143 0)
(0.995965 -0.00751452 0)
(0.991661 -0.00449998 0)
(0.991614 -0.00569801 0)
(0.988545 0.00133947 0)
(0.988659 0.00530877 0)
(0.990768 0.007616 0)
(0.99258 0.0117349 0)
(0.995068 0.0133969 0)
(0.999754 0.00172688 0)
(1.00047 -0.000782233 0)
(1.00342 0.00352583 0)
(1.00293 -0.00601408 0)
(0.996415 -0.00176831 0)
(0.996216 0.000506386 0)
(0.997743 0.00477488 0)
(1.0014 0.00745954 0)
(1.00938 0.00268823 0)
(1.00656 -0.004299 0)
(1.00249 -0.00283373 0)
(1.00317 -0.00998411 0)
(0.996328 -0.007414 0)
(0.991802 -0.00394948 0)
(0.991979 -0.00519238 0)
(0.989347 0.00112653 0)
(0.989141 0.00551201 0)
(0.991305 0.00740268 0)
(0.993122 0.0109613 0)
(0.995233 0.0130642 0)
(0.999729 0.00166309 0)
(1.00053 -0.000707849 0)
(1.00324 0.00327159 0)
(1.00281 -0.00561712 0)
(0.996588 -0.00179197 0)
(0.996427 0.000690243 0)
(0.99795 0.0043273 0)
(1.00132 0.00721852 0)
(1.00889 0.00247845 0)
(1.00636 -0.00406515 0)
(1.0022 -0.00273527 0)
(1.00295 -0.0092614 0)
(0.996704 -0.00729304 0)
(0.991975 -0.00345717 0)
(0.992317 -0.00463114 0)
(0.990155 0.000905165 0)
(0.989653 0.00563562 0)
(0.991774 0.00729472 0)
(0.993674 0.0101997 0)
(0.995454 0.0126011 0)
(0.999719 0.00159562 0)
(1.00058 -0.000623761 0)
(1.00308 0.00300878 0)
(1.00269 -0.00521565 0)
(0.996771 -0.00182013 0)
(0.996628 0.000866172 0)
(0.998162 0.0039024 0)
(1.00124 0.00694241 0)
(1.0084 0.00230798 0)
(1.00615 -0.0038715 0)
(1.00194 -0.0026123 0)
(1.00272 -0.00854676 0)
(0.997084 -0.00715164 0)
(0.992186 -0.00302038 0)
(0.992626 -0.00402513 0)
(0.99096 0.000694112 0)
(0.990206 0.0056629 0)
(0.99218 0.00726471 0)
(0.994206 0.00951231 0)
(0.995744 0.0119938 0)
(0.999718 0.00152385 0)
(1.00061 -0.000529718 0)
(1.00293 0.00273923 0)
(1.00255 -0.00481057 0)
(0.996961 -0.00185045 0)
(0.996822 0.00102853 0)
(0.998375 0.00351161 0)
(1.00117 0.00663163 0)
(1.00792 0.00217769 0)
(1.00594 -0.00370741 0)
(1.00169 -0.00247743 0)
(1.00246 -0.00783271 0)
(0.997462 -0.00698226 0)
(0.992438 -0.00263172 0)
(0.992906 -0.00337973 0)
(0.99175 0.000522811 0)
(0.990804 0.00559411 0)
(0.99254 0.00727571 0)
(0.994693 0.00894798 0)
(0.996101 0.0112765 0)
(0.999722 0.00144839 0)
(1.00064 -0.000428564 0)
(1.00278 0.00246761 0)
(1.00242 -0.00440782 0)
(0.997152 -0.00187489 0)
(0.997011 0.00116376 0)
(0.998584 0.00316307 0)
(1.0011 0.00628288 0)
(1.00743 0.00208362 0)
(1.00573 -0.00356248 0)
(1.00147 -0.00234322 0)
(1.0022 -0.00711643 0)
(0.99783 -0.00677746 0)
(0.992736 -0.00230252 0)
(0.99316 -0.00271894 0)
(0.992511 0.000402396 0)
(0.991448 0.00543321 0)
(0.992874 0.00728809 0)
(0.995114 0.00851607 0)
(0.996505 0.0105112 0)
(0.999728 0.0013699 0)
(1.00065 -0.000322373 0)
(1.00264 0.00219685 0)
(1.00229 -0.00401944 0)
(0.997343 -0.00188614 0)
(0.997194 0.00126859 0)
(0.998786 0.00285378 0)
(1.00103 0.00590905 0)
(1.00695 0.00201233 0)
(1.00551 -0.00342513 0)
(1.00127 -0.00221546 0)
(1.00193 -0.00640202 0)
(0.998183 -0.0065337 0)
(0.993078 -0.00202711 0)
(0.993392 -0.00206219 0)
(0.993232 0.000344977 0)
(0.992133 0.00519025 0)
(0.993204 0.0072686 0)
(0.995462 0.00819899 0)
(0.996922 0.00977616 0)
(0.999735 0.00128964 0)
(1.00066 -0.000216242 0)
(1.00251 0.00193214 0)
(1.00215 -0.00364899 0)
(0.997533 -0.00187628 0)
(0.997373 0.00134022 0)
(0.998978 0.00258791 0)
(1.00098 0.00551559 0)
(1.00647 0.00196453 0)
(1.0053 -0.003284 0)
(1.0011 -0.00210198 0)
(1.00165 -0.00568369 0)
(0.998517 -0.00624151 0)
(0.993465 -0.00181282 0)
(0.993609 -0.00141422 0)
(0.9939 0.00036601 0)
(0.992851 0.00489358 0)
(0.993548 0.00720459 0)
(0.995743 0.00797033 0)
(0.997318 0.00914021 0)
(0.999743 0.00120768 0)
(1.00067 -0.000108893 0)
(1.00238 0.00168215 0)
(1.00202 -0.00330597 0)
(0.997719 -0.00184496 0)
(0.997548 0.00137779 0)
(0.999159 0.00235137 0)
(1.00094 0.00510727 0)
(1.00599 0.00192498 0)
(1.00508 -0.00313445 0)
(1.00096 -0.00200566 0)
(1.00137 -0.00497833 0)
(0.998822 -0.00589424 0)
(0.993896 -0.00164798 0)
(0.993822 -0.000797739 0)
(0.994504 0.000455729 0)
(0.993588 0.00456338 0)
(0.993922 0.00708833 0)
(0.995971 0.00779176 0)
(0.997665 0.00861735 0)
(0.999751 0.00112449 0)
(1.00066 -6.33169e-07 0)
(1.00224 0.00145815 0)
(1.00189 -0.00299898 0)
(0.9979 -0.00179618 0)
(0.997719 0.00139065 0)
(0.999328 0.00213469 0)
(1.0009 0.00468885 0)
(1.00552 0.00189242 0)
(1.00486 -0.00297463 0)
(1.00085 -0.00191925 0)
(1.0011 -0.00430061 0)
(0.999097 -0.00549108 0)
(0.994366 -0.00151614 0)
(0.994038 -0.000231977 0)
(0.995038 0.000612239 0)
(0.994333 0.00421652 0)
(0.994334 0.00690941 0)
(0.996164 0.00762713 0)
(0.997948 0.0081877 0)
(0.99976 0.0010428 0)
(1.00065 9.95229e-05 0)
(1.00211 0.00127141 0)
(1.00176 -0.00271827 0)
(0.998077 -0.00174131 0)
(0.997886 0.00138832 0)
(0.999483 0.00194502 0)
(1.00087 0.00426379 0)
(1.00506 0.00186939 0)
(1.00463 -0.00279371 0)
(1.00077 -0.00183777 0)
(1.00084 -0.00365389 0)
(0.999333 -0.00503794 0)
(0.994869 -0.00141691 0)
(0.994269 0.000272282 0)
(0.995499 0.000837944 0)
(0.995067 0.0038761 0)
(0.994788 0.00667005 0)
(0.996339 0.0074729 0)
(0.99817 0.0078363 0)
(0.999769 0.000962845 0)
(1.00063 0.00019014 0)
(1.00198 0.00111688 0)
(1.00163 -0.00246288 0)
(0.99825 -0.00168293 0)
(0.998049 0.00136267 0)
(0.999622 0.00178518 0)
(1.00085 0.0038387 0)
(1.00462 0.00184669 0)
(1.00439 -0.00258318 0)
(1.00072 -0.00175743 0)
(1.0006 -0.00304639 0)
(0.999527 -0.00454489 0)
(0.995393 -0.00134143 0)
(0.994525 0.000694624 0)
(0.995888 0.0011091 0)
(0.995775 0.00355532 0)
(0.995291 0.00636185 0)
(0.996514 0.00732225 0)
(0.998335 0.00754513 0)
(0.999779 0.000883547 0)
(1.00061 0.000271247 0)
(1.00186 0.000982096 0)
(1.00151 -0.0022271 0)
(0.998419 -0.0016227 0)
(0.998209 0.00131825 0)
(0.999745 0.00166144 0)
(1.00084 0.00343645 0)
(1.00421 0.00181389 0)
(1.00415 -0.00233832 0)
(1.0007 -0.00167978 0)
(1.00038 -0.00249618 0)
(0.999677 -0.00402567 0)
(0.995928 -0.00127651 0)
(0.994814 0.00101941 0)
(0.996211 0.00140546 0)
(0.996436 0.00328627 0)
(0.99584 0.00598965 0)
(0.996708 0.00715209 0)
(0.998452 0.00730097 0)
(0.999789 0.000805133 0)
(1.00059 0.0003383 0)
(1.00173 0.000868627 0)
(1.00139 -0.00199112 0)
(0.998582 -0.0015663 0)
(0.998368 0.0012564 0)
(0.999853 0.00157205 0)
(1.00084 0.00307702 0)
(1.00382 0.00177464 0)
(1.0039 -0.00206273 0)
(1.00069 -0.00159598 0)
(1.00019 -0.00202202 0)
(0.999791 -0.0034967 0)
(0.996463 -0.00121379 0)
(0.995144 0.00124558 0)
(0.996483 0.00171578 0)
(0.997032 0.00310164 0)
(0.996423 0.00557878 0)
(0.996936 0.00694015 0)
(0.998528 0.00710432 0)
(0.9998 0.000730901 0)
(1.00056 0.000386625 0)
(1.00161 0.000768164 0)
(1.00127 -0.00175531 0)
(0.998737 -0.00149559 0)
(0.998526 0.00117007 0)
(0.999951 0.00150828 0)
(1.00084 0.00275741 0)
(1.00345 0.00172257 0)
(1.00366 -0.00176895 0)
(1.00071 -0.0014938 0)
(1.00003 -0.00161236 0)
(0.999873 -0.00296561 0)
(0.996988 -0.00113493 0)
(0.995521 0.00138757 0)
(0.996723 0.00200636 0)
(0.997551 0.00299072 0)
(0.99702 0.00514963 0)
(0.997216 0.00666202 0)
(0.998584 0.00693331 0)
(0.999811 0.000661877 0)
(1.00053 0.000410029 0)
(1.00149 0.000689069 0)
(1.00115 -0.00151684 0)
(0.998883 -0.00141449 0)
(0.998686 0.00103948 0)
(1.00004 0.00146244 0)
(1.00084 0.00247938 0)
(1.00312 0.00167304 0)
(1.00341 -0.00146455 0)
(1.00073 -0.001369 0)
(0.999917 -0.00125628 0)
(0.999931 -0.00245166 0)
(0.997492 -0.00103414 0)
(0.99594 0.00145915 0)
(0.996948 0.00225369 0)
(0.99799 0.00294672 0)
(0.997609 0.00474844 0)
(0.997554 0.0063252 0)
(0.998645 0.00675522 0)
(0.999822 0.00059265 0)
(1.0005 0.000428804 0)
(1.00138 0.000598697 0)
(1.00104 -0.00128944 0)
(0.999016 -0.00131353 0)
(0.998849 0.000904949 0)
(1.00013 0.00138895 0)
(1.00084 0.00222658 0)
(1.00282 0.00165407 0)
(1.00317 -0.00113876 0)
(1.00077 -0.00120724 0)
(0.999836 -0.000935349 0)
(0.999967 -0.00195269 0)
(0.997967 -0.000896127 0)
(0.996397 0.00148189 0)
(0.997176 0.0024576 0)
(0.998355 0.0029646 0)
(0.998171 0.00441013 0)
(0.997946 0.00595791 0)
(0.998736 0.00654872 0)
(0.999834 0.000522198 0)
(1.00047 0.000441275 0)
(1.00127 0.000497942 0)
(1.00094 -0.00107146 0)
(0.99914 -0.00121298 0)
(0.999005 0.000785005 0)
(1.00021 0.00134735 0)
(1.00087 0.00204914 0)
(1.00256 0.00160649 0)
(1.00294 -0.000857558 0)
(1.00081 -0.00104331 0)
(0.999783 -0.00065631 0)
(0.999983 -0.0014725 0)
(0.998397 -0.000719188 0)
(0.996874 0.00146945 0)
(0.997417 0.00260356 0)
(0.998657 0.00301692 0)
(0.998689 0.00412929 0)
(0.99838 0.0055749 0)
(0.998882 0.0062932 0)
(0.999846 0.000458997 0)
(1.00044 0.000443944 0)
(1.00118 0.000401699 0)
(1.00084 -0.000886224 0)
(0.999245 -0.00103527 0)
(0.999171 0.000707811 0)
(1.0003 0.0013277 0)
(1.00089 0.00189688 0)
(1.00232 0.00150947 0)
(1.00272 -0.000649408 0)
(1.00085 -0.000897245 0)
(0.999765 -0.000415473 0)
(0.999992 -0.00102585 0)
(0.998784 -0.000523434 0)
(0.997369 0.00142229 0)
(0.997688 0.0026737 0)
(0.998914 0.00307841 0)
(0.999155 0.00390218 0)
(0.998837 0.00519484 0)
(0.999087 0.00599732 0)
(0.999858 0.000395437 0)
(1.0004 0.000445549 0)
(1.0011 0.000313877 0)
(1.00076 -0.000711725 0)
(0.999347 -0.000803104 0)
(0.999326 0.000653528 0)
(1.00039 0.00124851 0)
(1.0009 0.00173508 0)
(1.00211 0.00142764 0)
(1.00252 -0.00046049 0)
(1.0009 -0.000749393 0)
(0.999788 -0.000198912 0)
(1 -0.000611375 0)
(0.999128 -0.000295748 0)
(0.997867 0.00138655 0)
(0.997995 0.00269528 0)
(0.999142 0.00314615 0)
(0.999558 0.00374238 0)
(0.999295 0.0048459 0)
(0.999345 0.00568508 0)
(0.999871 0.000332557 0)
(1.00037 0.000448367 0)
(1.00102 0.000241015 0)
(1.00069 -0.000555872 0)
(0.999436 -0.000591525 0)
(0.999469 0.000614027 0)
(1.00048 0.001165 0)
(1.00093 0.00159485 0)
(1.00192 0.00136685 0)
(1.00233 -0.000269932 0)
(1.00096 -0.000593947 0)
(0.999846 -6.33882e-06 0)
(1.00003 -0.000235108 0)
(0.99943 -4.40567e-05 0)
(0.998356 0.00137272 0)
(0.998334 0.00267203 0)
(0.999355 0.0031896 0)
(0.999899 0.00363305 0)
(0.999734 0.00453423 0)
(0.999645 0.00535903 0)
(0.999883 0.000275757 0)
(1.00033 0.000451564 0)
(1.00095 0.000176957 0)
(1.00064 -0.000459049 0)
(0.999522 -0.000369906 0)
(0.999599 0.000622951 0)
(1.00056 0.0010857 0)
(1.00096 0.00146273 0)
(1.00176 0.00132595 0)
(1.00215 -7.16062e-05 0)
(1.00102 -0.000431156 0)
(0.999934 0.000151917 0)
(1.00006 0.000102462 0)
(0.999692 0.000217458 0)
(0.998819 0.00137451 0)
(0.998698 0.00260998 0)
(0.999572 0.00319437 0)
(1.00019 0.00355434 0)
(1.00014 0.00427079 0)
(0.999977 0.0050333 0)
(0.999895 0.000222164 0)
(1.0003 0.000444352 0)
(1.00088 0.000138535 0)
(1.00061 -0.000393725 0)
(0.999606 -0.00016389 0)
(0.999711 0.000661726 0)
(1.00064 0.00102289 0)
(1.001 0.00134461 0)
(1.00163 0.00129672 0)
(1.00199 0.000113624 0)
(1.00108 -0.000270789 0)
(1.00005 0.000276623 0)
(1.00011 0.000389286 0)
(0.999917 0.00047988 0)
(0.999249 0.0014119 0)
(0.999078 0.0025419 0)
(0.999802 0.00317449 0)
(1.00045 0.00349345 0)
(1.00051 0.00405709 0)
(1.00032 0.0047238 0)
(0.999906 0.00017645 0)
(1.00026 0.000430545 0)
(1.00081 0.00011637 0)
(1.0006 -0.000356563 0)
(0.999696 1.98799e-05 0)
(0.99981 0.00073595 0)
(1.00071 0.000986899 0)
(1.00104 0.00122841 0)
(1.00152 0.00125975 0)
(1.00184 0.000287867 0)
(1.00113 -0.000105469 0)
(1.00019 0.000388042 0)
(1.00019 0.000621332 0)
(1.00012 0.000723521 0)
(0.99964 0.00147296 0)
(0.99946 0.00246836 0)
(1.00005 0.00312137 0)
(1.00068 0.00343089 0)
(1.00083 0.00387856 0)
(1.00066 0.00444395 0)
(0.999917 0.000136498 0)
(1.00023 0.000410268 0)
(1.00074 0.000114392 0)
(1.0006 -0.00032414 0)
(0.999793 0.000166561 0)
(0.999895 0.000818352 0)
(1.00076 0.000969072 0)
(1.00109 0.0011235 0)
(1.00145 0.00122371 0)
(1.00172 0.000458297 0)
(1.00118 6.80181e-05 0)
(1.00034 0.00049051 0)
(1.00029 0.00080621 0)
(1.0003 0.000934347 0)
(0.999991 0.00154252 0)
(0.999833 0.00240472 0)
(1.0003 0.00304959 0)
(1.0009 0.00336836 0)
(1.00112 0.00373169 0)
(1.00099 0.00420147 0)
(0.999925 0.000105108 0)
(1.0002 0.000385709 0)
(1.00068 0.000138443 0)
(1.00061 -0.000288253 0)
(0.999899 0.000263061 0)
(0.999973 0.000893219 0)
(1.00079 0.000979692 0)
(1.00113 0.00104253 0)
(1.0014 0.00117981 0)
(1.00161 0.000609384 0)
(1.00121 0.000251887 0)
(1.00049 0.000591608 0)
(1.00041 0.000949291 0)
(1.00048 0.00111456 0)
(1.00031 0.00161686 0)
(1.00019 0.00235709 0)
(1.00057 0.00296912 0)
(1.00111 0.00329631 0)
(1.00138 0.00360434 0)
(1.00129 0.00398735 0)
(0.999933 8.21067e-05 0)
(1.00017 0.000356892 0)
(1.00061 0.000191989 0)
(1.00062 -0.000241484 0)
(1.00001 0.000309132 0)
(1.00005 0.000947983 0)
(1.00081 0.00100785 0)
(1.00117 0.000983955 0)
(1.00138 0.0011284 0)
(1.00153 0.000736686 0)
(1.00124 0.000440377 0)
(1.00064 0.000703799 0)
(1.00055 0.00106817 0)
(1.00065 0.00126721 0)
(1.00059 0.0016906 0)
(1.00053 0.00231589 0)
(1.00085 0.00288289 0)
(1.00133 0.00320908 0)
(1.00161 0.00348518 0)
(1.00156 0.00379892 0)
(0.999939 6.57402e-05 0)
(1.00016 0.000330534 0)
(1.00055 0.00025829 0)
(1.00063 -0.000181376 0)
(1.00013 0.000318855 0)
(1.00013 0.000977367 0)
(1.00082 0.00105212 0)
(1.0012 0.000954288 0)
(1.00137 0.00108675 0)
(1.00147 0.000835755 0)
(1.00127 0.000610733 0)
(1.00078 0.000822863 0)
(1.0007 0.00117258 0)
(1.00081 0.00138431 0)
(1.00085 0.00175311 0)
(1.00084 0.00228033 0)
(1.00111 0.00279685 0)
(1.00154 0.00311614 0)
(1.00183 0.00336815 0)
(1.0018 0.00363704 0)
(0.999944 5.75237e-05 0)
(1.00014 0.000304433 0)
(1.00049 0.000320244 0)
(1.00063 -0.000102242 0)
(1.00025 0.000316453 0)
(1.00022 0.000978365 0)
(1.00083 0.00110099 0)
(1.00122 0.000959931 0)
(1.00138 0.00105509 0)
(1.00144 0.0009077 0)
(1.00131 0.000760962 0)
(1.00091 0.000935795 0)
(1.00084 0.00126842 0)
(1.00098 0.00148135 0)
(1.00108 0.0018043 0)
(1.00113 0.00225183 0)
(1.00137 0.00271115 0)
(1.00175 0.00302139 0)
(1.00203 0.00324974 0)
(1.00202 0.00349117 0)
(0.999947 5.40117e-05 0)
(1.00013 0.00027676 0)
(1.00044 0.000375443 0)
(1.00062 -4.66814e-06 0)
(1.00036 0.000318125 0)
(1.00031 0.000953055 0)
(1.00083 0.00114279 0)
(1.00122 0.000987679 0)
(1.00139 0.00103758 0)
(1.00144 0.000961368 0)
(1.00135 0.000889627 0)
(1.00104 0.00103946 0)
(1.00099 0.00135147 0)
(1.00113 0.0015689 0)
(1.00129 0.00184533 0)
(1.0014 0.00222312 0)
(1.00162 0.00262618 0)
(1.00195 0.00292245 0)
(1.00222 0.0031308 0)
(1.00222 0.0033475 0)
(0.99995 5.52702e-05 0)
(1.00013 0.000250705 0)
(1.0004 0.000415915 0)
(1.00061 0.000103518 0)
(1.00046 0.000335219 0)
(1.00042 0.000912918 0)
(1.00085 0.0011709 0)
(1.00122 0.00103397 0)
(1.00141 0.00104509 0)
(1.00145 0.00100496 0)
(1.00139 0.000992045 0)
(1.00116 0.0011359 0)
(1.00113 0.00141969 0)
(1.00128 0.00163794 0)
(1.00148 0.0018812 0)
(1.00163 0.00219329 0)
(1.00186 0.00254475 0)
(1.00215 0.00282099 0)
(1.0024 0.00301338 0)
(1.0024 0.00320414 0)
(0.999951 5.71593e-05 0)
(1.00013 0.000232379 0)
(1.00037 0.000442058 0)
(1.0006 0.000214179 0)
(1.00054 0.000373623 0)
(1.00053 0.000868149 0)
(1.00087 0.00117794 0)
(1.00121 0.00108572 0)
(1.00141 0.00107582 0)
(1.00146 0.0010484 0)
(1.00145 0.00107164 0)
(1.00128 0.00121619 0)
(1.00127 0.00148103 0)
(1.00142 0.00168791 0)
(1.00166 0.0019101 0)
(1.00185 0.00216727 0)
(1.00208 0.00246497 0)
(1.00234 0.00272095 0)
(1.00257 0.00289804 0)
(1.00258 0.003065 0)
(0.999953 5.88857e-05 0)
(1.00013 0.000223193 0)
(1.00035 0.000458922 0)
(1.00059 0.000314926 0)
(1.00061 0.000432191 0)
(1.00063 0.000830344 0)
(1.00091 0.00116453 0)
(1.00121 0.00113241 0)
(1.00142 0.00112022 0)
(1.00149 0.00109574 0)
(1.00151 0.00113975 0)
(1.0014 0.00127379 0)
(1.00141 0.00152983 0)
(1.00156 0.00172767 0)
(1.00181 0.00192523 0)
(1.00204 0.00214522 0)
(1.00229 0.00238737 0)
(1.00252 0.0026197 0)
(1.00273 0.00278359 0)
(1.00275 0.00292759 0)
(0.999953 6.06674e-05 0)
(1.00014 0.000222274 0)
(1.00034 0.000468741 0)
(1.00058 0.000401178 0)
(1.00067 0.000503175 0)
(1.00073 0.000807782 0)
(1.00097 0.00114028 0)
(1.00122 0.00117005 0)
(1.00143 0.0011716 0)
(1.00151 0.00114838 0)
(1.00157 0.00120381 0)
(1.00151 0.00132053 0)
(1.00155 0.00155488 0)
(1.0017 0.00175514 0)
(1.00196 0.00192952 0)
(1.0022 0.00211942 0)
(1.00247 0.00231785 0)
(1.00269 0.00251607 0)
(1.00288 0.00267143 0)
(1.0029 0.00279303 0)
(0.999954 6.11997e-05 0)
(1.00014 0.00022929 0)
(1.00033 0.000477123 0)
(1.00057 0.000471043 0)
(1.00071 0.000577503 0)
(1.00081 0.000805217 0)
(1.00103 0.00111405 0)
(1.00124 0.00119088 0)
(1.00143 0.0012225 0)
(1.00154 0.00120426 0)
(1.00163 0.00126055 0)
(1.00162 0.00136659 0)
(1.00168 0.00156779 0)
(1.00183 0.00176102 0)
(1.00209 0.00192626 0)
(1.00235 0.00208534 0)
(1.00263 0.00225396 0)
(1.00285 0.00241609 0)
(1.00303 0.00255874 0)
(1.00304 0.00266427 0)
(0.999955 6.15552e-05 0)
(1.00014 0.000240589 0)
(1.00033 0.000488167 0)
(1.00058 0.000525746 0)
(1.00075 0.000648158 0)
(1.00089 0.00082146 0)
(1.00109 0.0010945 0)
(1.00127 0.00119844 0)
(1.00145 0.00126533 0)
(1.00156 0.00126177 0)