/*--------------------------------*- C++ -*----------------------------------*\
| =========                 |                                                 |
| \\      /  F ield         | OpenFOAM: The Open Source CFD Toolbox           |
|  \\    /   O peration     | Version:  3.0.1                                 |
|   \\  /    A nd           | Web:      www.OpenFOAM.org                      |
|    \\/     M anipulation  |                                                 |
\*---------------------------------------------------------------------------*/
FoamFile
{
    version     2.0;
    format      ascii;
    class       volScalarField;
    location    "4.1";
    object      p;
}
// * * * * * * * * * * * * * * * * * * * * * * * * * * * * * * * * * * * * * //

dimensions      [0 2 -2 0 0 0 0];

internalField   nonuniform List<scalar> 
9600
(
-3.43754e-10
-0.000251719
0.000163454
0.000604273
0.000852991
-0.000494179
0.00166818
0.000547251
0.000450689
0.00176243
0.00399364
0.00621995
0.00761891
0.00972135
0.0132467
0.0133081
0.0196209
0.0200218
0.0270672
0.0345432
-4.1083e-06
-0.000246962
0.000165043
0.000604057
0.000846565
-0.000499494
0.00167333
0.00054691
0.000468663
0.00177306
0.00398613
0.00622237
0.00761081
0.00970727
0.01325
0.0132761
0.0196346
0.0199563
0.0273479
0.0339972
-8.60579e-06
-0.000241208
0.000166513
0.000601058
0.00083463
-0.000501262
0.0016732
0.000543887
0.000495135
0.00178178
0.00397743
0.00622352
0.00759034
0.00969046
0.0132508
0.0132377
0.0196167
0.0198931
0.0274299
0.033269
-1.31389e-05
-0.000235464
0.000168361
0.000596283
0.000822803
-0.000499258
0.00166764
0.000537538
0.000528348
0.0017882
0.00397192
0.00622112
0.00756875
0.00967304
0.0132594
0.013195
0.0195905
0.0198219
0.0273583
0.0326283
-1.81017e-05
-0.000229341
0.00017126
0.000590468
0.0008124
-0.000493831
0.00165843
0.0005293
0.000567588
0.00179401
0.00396894
0.0062173
0.00754865
0.00965411
0.0132744
0.0131548
0.0195611
0.0197484
0.0272718
0.0320284
-2.35401e-05
-0.000222506
0.00017541
0.000583856
0.000804114
-0.000485229
0.00164697
0.000521647
0.000612042
0.00180098
0.00396773
0.00621389
0.00752967
0.00963405
0.0132934
0.0131223
0.0195144
0.0196867
0.0271265
0.0314495
-2.93304e-05
-0.000214879
0.00018082
0.000577135
0.000798778
-0.000473443
0.00163473
0.000516547
0.00066079
0.00181029
0.00396797
0.0062116
0.007512
0.00961248
0.0133154
0.0130954
0.019449
0.019633
0.0269121
0.0308891
-3.53578e-05
-0.000206508
0.000187471
0.00057101
0.000796786
-0.000458191
0.00162288
0.000515208
0.000713017
0.00182281
0.00396961
0.00621072
0.00749556
0.00958984
0.0133368
0.0130745
0.0193635
0.019585
0.026631
0.0303441
-4.15686e-05
-0.000197477
0.000195231
0.000565764
0.000798082
-0.000439241
0.00161216
0.000518078
0.000767956
0.00183918
0.00397278
0.00621139
0.00748006
0.00956599
0.0133541
0.0130596
0.0192546
0.0195402
0.0262858
0.0298082
-4.79758e-05
-0.000187873
0.000203832
0.000561349
0.000802231
-0.000416734
0.00160302
0.000524903
0.00082475
0.00185998
0.00397783
0.0062139
0.0074645
0.00954063
0.0133641
0.0130497
0.0191192
0.0194957
0.0258811
0.0292739
-5.46239e-05
-0.000177764
0.000212959
0.000557537
0.000808519
-0.000391235
0.00159569
0.000534863
0.000882407
0.00188575
0.00398532
0.00621854
0.00744748
0.00951373
0.0133639
0.0130432
0.0189558
0.0194484
0.0254225
0.0287319
-6.15459e-05
-0.000167169
0.000222336
0.000554055
0.000816216
-0.000363554
0.00159025
0.00054692
0.000939931
0.00191685
0.00399552
0.00622546
0.00742792
0.00948527
0.0133509
0.0130384
0.0187637
0.0193939
0.0249178
0.0281731
-6.87457e-05
-0.000156095
0.000231791
0.000550737
0.000824736
-0.000334505
0.00158667
0.000560156
0.000996516
0.00195325
0.00400785
0.00623457
0.0074051
0.00945513
0.0133233
0.0130341
0.0185431
0.0193264
0.0243757
0.0275915
-7.62116e-05
-0.000144558
0.000241287
0.000547539
0.000833629
-0.000304755
0.00158477
0.000573985
0.00105162
0.00199455
0.00402103
0.00624562
0.00737857
0.00942303
0.0132804
0.0130283
0.0182957
0.0192404
0.0238046
0.0269834
-8.39328e-05
-0.000132577
0.000250873
0.000544429
0.000842569
-0.000274756
0.0015843
0.000588171
0.00110491
0.00204027
0.00403358
0.00625826
0.00734821
0.00938864
0.0132221
0.0130186
0.0180244
0.0191307
0.0232115
0.0263466
-9.18967e-05
-0.000120174
0.000260619
0.000541357
0.000851365
-0.000244795
0.00158489
0.000602725
0.00115614
0.00209014
0.00404433
0.00627203
0.00731402
0.00935174
0.0131488
0.0130027
0.0177312
0.0189925
0.0226024
0.0256807
-0.000100083
-0.000107384
0.00027058
0.000538269
0.000859909
-0.00021503
0.00158611
0.000617714
0.00120503
0.00214421
0.00405243
0.00628653
0.00727636
0.00931172
0.0130618
0.0129767
0.0174174
0.0188231
0.0219829
0.0249867
-0.000108462
-9.42638e-05
0.000280808
0.000535075
0.000868146
-0.000185473
0.00158758
0.000633259
0.00125117
0.00220267
0.00405729
0.00630141
0.00723592
0.0092672
0.0129629
0.0129367
0.0170902
0.0186221
0.0213568
0.0242671
-0.000116993
-8.08888e-05
0.000291353
0.000531647
0.000876088
-0.000156034
0.00158891
0.000649667
0.00129397
0.00226563
0.00405852
0.006316
0.00719358
0.00921671
0.0128536
0.0128795
0.0167481
0.0183903
0.0207265
0.0235236
-0.000125628
-6.73568e-05
0.000302253
0.000527867
0.000883801
-0.000126579
0.00158967
0.000667349
0.00133275
0.00233302
0.00405592
0.00632911
0.00715035
0.00915858
0.0127357
0.0128041
0.0163902
0.0181306
0.0200953
0.0227579
-0.000134297
-5.37955e-05
0.00031355
0.000523648
0.000891327
-9.69345e-05
0.00158942
0.000686716
0.00136693
0.00240454
0.00404933
0.0063394
0.00710759
0.00909028
0.0126101
0.0127103
0.016014
0.0178456
0.0194679
0.0219709
-0.000142908
-4.03568e-05
0.000325297
0.000518921
0.000898645
-6.68989e-05
0.00158769
0.000708211
0.00139597
0.00247979
0.00403876
0.00634523
0.00706728
0.00900916
0.0124761
0.0125994
0.0156166
0.0175364
0.0188496
0.0211618
-0.000151358
-2.7207e-05
0.000337547
0.000513637
0.000905684
-3.62682e-05
0.00158401
0.000732243
0.00141932
0.0025582
0.00402484
0.00634432
0.00703094
0.00891385
0.0123322
0.0124735
0.015196
0.0172014
0.018246
0.0203308
-0.000159528
-1.45278e-05
0.000350349
0.000507767
0.000912325
-4.80637e-06
0.00157787
0.000759108
0.00143664
0.00263889
0.00400867
0.00633402
0.00699936
0.00880434
0.0121757
0.0123353
0.0147523
0.0168364
0.0176621
0.0194817
-0.000167297
-2.51026e-06
0.000363742
0.00050131
0.000918376
2.77902e-05
0.00156879
0.00078897
0.00144784
0.00272062
0.00399169
0.00631179
0.00697262
0.00868112
0.0120031
0.012188
0.0142882
0.0164366
0.017102
0.0186225
-0.000174525
8.65601e-06
0.000377727
0.000494334
0.000923547
6.18236e-05
0.0015564
0.000821854
0.00145286
0.00280162
0.00397504
0.00627551
0.00695002
0.00854577
0.0118107
0.0120332
0.0138073
0.0159981
0.0165673
0.0177648
-0.000181052
1.8786e-05
0.000392258
0.000486939
0.00092748
9.75891e-05
0.00154039
0.000857632
0.00145213
0.00287996
0.00393977
0.00622325
0.00693022
0.00840114
0.0115948
0.01187
0.0133141
0.015517
0.0160559
0.0169235
-0.000186741
2.77236e-05
0.000407259
0.000479246
0.000929727
0.000135398
0.00152063
0.000895966
0.00144645
0.00295388
0.00393368
0.00615408
0.00691069
0.00824972
0.0113521
0.0116923
0.0128163
0.0149913
0.0155599
0.0161114
-0.00019147
3.53483e-05
0.0004226
0.000471465
0.000929815
0.000175404
0.0014971
0.000936265
0.00143681
0.003021
0.00393488
0.00606804
0.00688752
0.00809436
0.0110811
0.0115078
0.0123229
0.0144209
0.0150687
0.0153425
-0.000195099
4.15559e-05
0.000438111
0.000463844
0.000927329
0.000217679
0.00146983
0.000977548
0.00142451
0.00307885
0.00394285
0.00596574
0.00685608
0.00793844
0.0107821
0.0113059
0.0118411
0.0138104
0.01457
0.0146277
-0.000197509
4.63262e-05
0.000453596
0.000456542
0.000921835
0.000262341
0.00143917
0.00101857
0.00141082
0.00312527
0.00395704
0.0058487
0.00681154
0.00778373
0.0104579
0.0110803
0.011376
0.0131712
0.0140521
0.0139678
-0.000198634
4.96892e-05
0.000468827
0.00044975
0.000912906
0.00030927
0.00140578
0.00105823
0.00139726
0.00315814
0.00397608
0.00571979
0.00674949
0.0076299
0.0101123
0.0108264
0.0109288
0.0125148
0.0135627
0.0133548
-0.0001984
5.16499e-05
0.000483552
0.000443753
0.000900223
0.000358013
0.00137029
0.00109528
0.00138522
0.00317614
0.00399769
0.00558213
0.00666629
0.00747589
0.00974945
0.0105402
0.0104982
0.0118471
0.0129542
0.012783
-0.00019678
5.21974e-05
0.000497641
0.000438835
0.000883476
0.000408081
0.0013333
0.00112808
0.00137571
0.00317885
0.00401847
0.00543844
0.00655941
0.0073198
0.00937423
0.0102197
0.0100805
0.0111779
0.0123086
0.0122196
-0.000193731
5.12624e-05
0.000510944
0.000435288
0.000862381
0.000458876
0.0012957
0.00115499
0.0013693
0.00316643
0.00403437
0.00529081
0.00642764
0.00715893
0.00899173
0.00986498
0.0096773
0.0105046
0.0116314
0.0116503
-0.000189103
4.87774e-05
0.000523122
0.000433529
0.000836792
0.000509504
0.00125875
0.00117448
0.00136549
0.00313964
0.00404213
0.00514045
0.00627074
0.00699001
0.00860675
0.00947845
0.00926639
0.00985362
0.0109325
0.0110627
-0.000182816
4.45857e-05
0.000533976
0.000434141
0.000806417
0.000558917
0.00122394
0.00118529
0.00136292
0.00309969
0.00403911
0.00498781
0.00608922
0.00680938
0.00822272
0.0090645
0.00884952
0.00925044
0.0102262
0.0104489
-0.000176055
3.84352e-05
0.000543197
0.000437948
0.000770965
0.000605626
0.00119271
0.00118659
0.00135994
0.00304823
0.00402313
0.00483267
0.00588372
0.00661366
0.00784184
0.00862799
0.00842148
0.00866539
0.00952356
0.00981129
-0.000166021
3.0196e-05
0.000550059
0.00044595
0.000730764
0.000647503
0.00116646
0.00117831
0.00135394
0.00298653
0.0039919
0.00467458
0.00565528
0.00639963
0.00746515
0.00817434
0.00798018
0.00809393
0.00883102
0.00915748
-0.000153839
1.99178e-05
0.000553687
0.000458622
0.000686646
0.000682406
0.001146
0.0011614
0.00134162
0.00291423
0.00394304
0.0045138
0.00540629
0.00616396
0.00709321
0.00770947
0.00752398
0.00753265
0.00815063
0.00849521
-0.000139591
7.67478e-06
0.000553194
0.000476339
0.000639934
0.000707885
0.00113158
0.00113782
0.00131977
0.00283036
0.00386135
0.00435114
0.00513986
0.00590346
0.00672477
0.00723932
0.00705241
0.00697841
0.00748269
0.00783206
-0.000123276
-6.14892e-06
0.000547147
0.000499148
0.000593259
0.00072074
0.00112197
0.00111051
0.00128568
0.00273391
0.00378119
0.00418779
0.00485968
0.00561651
0.00635558
0.00676884
0.00656774
0.00642785
0.00682706
0.00717232
-0.000105106
-2.07629e-05
0.000533716
0.000526694
0.000550322
0.000718477
0.00111431
0.00108252
0.00123804
0.00262198
0.00368802
0.00402485
0.00457019
0.0053033
0.0059807
0.00630106
0.00607453
0.00587846
0.00618246
0.00651696
-8.5753e-05
-3.50416e-05
0.000511947
0.000557848
0.000515022
0.00070028
0.00110317
0.00105528
0.00117808
0.00249235
0.00357872
0.00386274
0.00427691
0.00496561
0.00559553
0.00583642
0.00557708
0.00532929
0.00554628
0.0058672
-6.59188e-05
-4.74334e-05
0.000481208
0.000589123
0.00049022
0.000665147
0.00108247
0.0010312
0.00111122
0.00234461
0.00344587
0.00369909
0.00398469
0.00460668
0.00519649
0.00537399
0.0050778
0.00478082
0.00491618
0.00522235
-4.63675e-05
-5.66904e-05
0.000441511
0.000615019
0.000477323
0.000618766
0.00104831
0.00100886
0.00104214
0.00217973
0.00328663
0.00353012
0.00369582
0.00423161
0.00478171
0.00491131
0.00457919
0.00423606
0.00429211
0.00457815
-2.80611e-05
-6.18666e-05
0.000394656
0.00063028
0.000476346
0.000568555
0.000997368
0.000983183
0.000973837
0.00200136
0.0031007
0.00335126
0.00341191
0.00384594
0.00435069
0.00444568
0.0040832
0.00369705
0.00367602
0.00393226
-1.19238e-05
-6.22935e-05
0.000342922
0.000630954
0.000485753
0.000519796
0.0009288
0.000947345
0.000907737
0.00181594
0.00288327
0.00315733
0.00313253
0.00345387
0.00390471
0.00397616
0.00359035
0.00316441
0.00307279
0.00328598
1.30676e-06
-5.78425e-05
0.000289417
0.000614184
0.000499651
0.000476754
0.000844287
0.000895258
0.000841827
0.0016299
0.00264824
0.00294379
0.00285439
0.00305961
0.00344574
0.00350096
0.00310096
0.00263937
0.00248575
0.00264403
1.12127e-05
-4.90742e-05
0.000238179
0.000578012
0.000509686
0.000443209
0.000748839
0.000823108
0.000771694
0.00144747
0.00239856
0.0027084
0.00257324
0.00266659
0.0029767
0.00301838
0.00261573
0.00212185
0.00191296
0.0020149
1.78177e-05
-3.73055e-05
0.000192038
0.000522607
0.000507085
0.000418612
0.000650601
0.00073166
0.000690173
0.00126801
0.00213917
0.00245233
0.0022858
0.00227578
0.00250174
0.0025274
0.00213315
0.00161249
0.0013529
0.00140473
2.15416e-05
-2.39371e-05
0.000152116
0.00045045
0.000484891
0.000400173
0.000558271
0.000623583
0.000591101
0.00108889
0.00187586
0.002181
0.00199149
0.00188673
0.0020235
0.00202775
0.00165036
0.00111447
0.000806227
0.000813083
2.28387e-05
-1.12283e-05
0.000118879
0.00036695
0.000438633
0.000381193
0.000476212
0.000504765
0.000471845
0.000902746
0.0016098
0.00189911
0.00169118
0.00150054
0.00154379
0.00152007
0.00116472
0.000628788
0.00027527
0.000238894
2.19593e-05
-2.74596e-06
9.19957e-05
0.00028001
0.000367224
0.000350062
0.000402975
0.000385491
0.000334045
0.000702583
0.00134046
0.00160987
0.00138646
0.0011196
0.00106664
0.00100507
0.000673336
0.00015226
-0.000237892
-0.000317905
1.91512e-05
7.35886e-07
6.90173e-05
0.000193933
0.000273584
0.00029718
0.000335605
0.000272896
0.000181526
0.000484474
0.00106078
0.00131355
0.00107967
0.000746086
0.000597688
0.000487005
0.000173145
-0.000321546
-0.000733511
-0.000855256
1.4544e-05
-2.48648e-06
4.69266e-05
0.000105262
0.000163375
0.00021809
0.000267111
0.000168251
2.51803e-05
0.000249912
0.000763568
0.00100671
0.000772439
0.000382997
0.000141311
-2.85268e-05
-0.000335999
-0.00079776
-0.00121416
-0.00137291
8.18033e-06
-1.27768e-05
2.13858e-05
2.99279e-05
4.4895e-05
0.000111748
0.000185952
6.94213e-05
-0.00012701
3.43752e-06
0.00044666
0.000683642
0.000462575
3.24551e-05
-0.000298215
-0.000535192
-0.000849081
-0.00128008
-0.00168578
-0.00187175
-4.46904e-07
-2.98574e-05
-1.17205e-05
-3.97114e-05
-9.93795e-05
-2.25858e-05
8.25672e-05
-2.72877e-05
-0.000272103
-0.000243166
0.000112466
0.000339807
0.000143124
-0.00030767
-0.000715718
-0.00102485
-0.00135913
-0.00176939
-0.00215524
-0.00235363
-1.24437e-05
-5.36332e-05
-5.33555e-05
-8.57378e-05
-0.000216413
-0.000177371
-4.7878e-05
-0.000131517
-0.000410315
-0.000482251
-0.000231322
-2.53375e-05
-0.000191648
-0.000642059
-0.00110976
-0.00149173
-0.00185908
-0.0022603
-0.00262721
-0.00282482
-2.87982e-05
-8.28112e-05
-0.000105109
-0.000153345
-0.000322415
-0.00034085
-0.000205488
-0.000253433
-0.000543072
-0.000707709
-0.000570615
-0.000406828
-0.00054542
-0.00097825
-0.00148383
-0.00193174
-0.00234132
-0.00274539
-0.00310028
-0.00329125
-5.04994e-05
-0.000117145
-0.00016738
-0.000226758
-0.000416819
-0.000502824
-0.000389253
-0.000399468
-0.000677994
-0.000918956
-0.000897211
-0.000795341
-0.000918509
-0.00132296
-0.00184509
-0.00234451
-0.00279953
-0.0032171
-0.00356724
-0.00375524
-7.86873e-05
-0.000155951
-0.000236283
-0.000309131
-0.000511073
-0.000657694
-0.000591002
-0.000571959
-0.000824779
-0.00111787
-0.00120329
-0.00117926
-0.00130635
-0.00168077
-0.00220062
-0.00273353
-0.00323013
-0.00367024
-0.00402161
-0.00421113
-0.000114275
-0.000206137
-0.000310835
-0.000401902
-0.000608244
-0.000803956
-0.000798348
-0.000768901
-0.00098866
-0.00130931
-0.00148791
-0.00154906
-0.00169923
-0.00205171
-0.00255688
-0.00310468
-0.00363214
-0.00409962
-0.00445936
-0.00465229
-0.000157433
-0.000255092
-0.000389659
-0.000505003
-0.000712509
-0.000943552
-0.00100319
-0.000991563
-0.00117745
-0.00150201
-0.00175169
-0.00189775
-0.0020849
-0.00242915
-0.00291642
-0.00346516
-0.00400969
-0.00450167
-0.00487718
-0.0050746
-0.000208558
-0.0003108
-0.00047183
-0.000616691
-0.000826686
-0.00107477
-0.00120148
-0.00125528
-0.0013887
-0.00167889
-0.00199181
-0.00222245
-0.00245587
-0.00280296
-0.00327667
-0.00381918
-0.00436859
-0.00487584
-0.00527131
-0.00547721
-0.000267819
-0.000374176
-0.000557406
-0.000734566
-0.000951883
-0.00121431
-0.00140011
-0.00148218
-0.00161668
-0.00189313
-0.00222787
-0.00252257
-0.00280696
-0.00316522
-0.00362951
-0.0041641
-0.00471133
-0.00522479
-0.00563974
-0.00585623
-0.000335123
-0.000445938
-0.000647155
-0.00085662
-0.00108753
-0.00135827
-0.00158031
-0.00170814
-0.00185518
-0.00211698
-0.00246044
-0.00279861
-0.00313173
-0.00351064
-0.00396834
-0.00449216
-0.00503636
-0.00554631
-0.00596182
-0.00620423
-0.000410044
-0.000525947
-0.000742668
-0.000981893
-0.00123161
-0.00150919
-0.00175727
-0.00192894
-0.00209686
-0.00234792
-0.00269014
-0.00305524
-0.00342519
-0.00383067
-0.00429114
-0.0047913
-0.00534458
-0.00585135
-0.00627176
-0.00652393
-0.000492999
-0.00061465
-0.000844136
-0.00110965
-0.00138173
-0.00166781
-0.00193466
-0.00214315
-0.00233605
-0.00258206
-0.00291589
-0.00329442
-0.00368626
-0.0041169
-0.00460722
-0.00511401
-0.00563642
-0.00613496
-0.00655289
-0.00681378
-0.000584151
-0.000711856
-0.000952105
-0.00124072
-0.00153619
-0.00183303
-0.00211429
-0.0023517
-0.00256931
-0.00281604
-0.00313746
-0.00351641
-0.00391551
-0.00434022
-0.00477357
-0.00531858
-0.00585745
-0.00636656
-0.00679078
-0.00706345
-0.000681884
-0.000815473
-0.00106898
-0.00137677
-0.00169355
-0.00200384
-0.0022972
-0.00255617
-0.00279351
-0.00304255
-0.00335154
-0.00372123
-0.00412532
-0.00456506
-0.00510143
-0.00557542
-0.00608295
-0.0065815
-0.00700627
-0.0072892
-0.000788319
-0.000927872
-0.00119097
-0.00151438
-0.00185274
-0.00217966
-0.00248438
-0.0027606
-0.00301421
-0.00326504
-0.00356056
-0.00389839
-0.00426079
-0.00464701
-0.00502822
-0.00556351
-0.00609324
-0.00660883
-0.00705952
-0.0073673
-0.000903305
-0.00104802
-0.0013176
-0.00165559
-0.0020149
-0.00235811
-0.00267239
-0.00296093
-0.00323097
-0.00348452
-0.00377052
-0.00410073
-0.00445261
-0.00482813
-0.00525074
-0.00568946
-0.00616047
-0.00664316
-0.00709309
-0.00742416
-0.00102297
-0.00117137
-0.00145188
-0.0018059
-0.00218096
-0.00253874
-0.00286628
-0.00316461
-0.00344396
-0.00369379
-0.00392762
-0.0041535
-0.00438514
-0.00466964
-0.00503566
-0.00545846
-0.00593157
-0.00643879
-0.00695226
-0.00739842
-0.0011493
-0.0013036
-0.00159257
-0.00195393
-0.00233838
-0.00270693
-0.0030596
-0.00339619
-0.00371626
-0.00404387
-0.00438828
-0.00465451
-0.00477658
-0.00479171
-0.00487157
-0.00503803
-0.00526344
-0.00547669
-0.00565416
-0.00584142
-0.00128585
-0.00144671
-0.00174082
-0.00210035
-0.00248067
-0.00285639
-0.00320931
-0.00355006
-0.00387051
-0.00406966
-0.00410786
-0.004171
-0.00429798
-0.00452226
-0.0047823
-0.00504831
-0.00529952
-0.0055484
-0.00580149
-0.00612093
-0.00143455
-0.00159089
-0.0018948
-0.00226852
-0.0026585
-0.0030378
-0.00333733
-0.00352409
-0.00367109
-0.00387197
-0.00416258
-0.00447685
-0.0047562
-0.00501357
-0.00522375
-0.00537404
-0.00545953
-0.00549424
-0.0055478
-0.00569438
-0.00161343
-0.00174285
-0.00198427
-0.00228146
-0.00258944
-0.00287593
-0.00315096
-0.00340255
-0.00371866
-0.00398675
-0.00421328
-0.00442586
-0.00463213
-0.00486352
-0.00516095
-0.00553589
-0.00602446
-0.00660994
-0.0072549
-0.00787061
-0.00182751
-0.00196948
-0.00211767
-0.00230754
-0.00256092
-0.00288694
-0.00323762
-0.00356359
-0.00382803
-0.00410674
-0.00435331
-0.00459853
-0.00484293
-0.00504464
-0.00522689
-0.00538408
-0.0055078
-0.00560448
-0.00572431
-0.00594298
-0.0019661
-0.00209485
-0.00219965
-0.00233819
-0.00255285
-0.00282142
-0.00310763
-0.00340236
-0.00373449
-0.00406397
-0.00432621
-0.00454225
-0.00475777
-0.00493496
-0.00508346
-0.0052291
-0.00539189
-0.00559085
-0.00585506
-0.00626096
0.0498215
0.0346397
0.0192619
0.00961945
0.00531913
0.00414603
0.00350681
0.00215826
0.000298133
-0.00136514
-0.00248821
-0.00329305
-0.00414556
-0.00511121
-0.0061023
-0.00712602
-0.00810689
-0.0089288
-0.0097193
-0.0106329
-0.0116064
-0.0125532
-0.0134646
-0.0143491
-0.0152492
-0.0162053
-0.0172031
-0.0181848
-0.0190997
-0.0199691
-0.0208564
-0.0217682
-0.0226622
-0.0235289
-0.0244128
-0.0253321
-0.0262511
-0.0271608
-0.0280997
-0.0290688
-0.0300374
-0.0310105
-0.0320073
-0.0330148
-0.0340082
-0.0350064
-0.0360326
-0.0370776
-0.0381487
-0.0392686
-0.0404192
-0.0415663
-0.0426998
-0.0438664
-0.045049
-0.0462096
-0.0473964
-0.0486488
-0.0499183
-0.0512037
-0.0525269
-0.0538797
-0.0552483
-0.0566362
-0.0580563
-0.0594908
-0.0609346
-0.0623929
-0.0638946
-0.0654394
-0.0670293
-0.0686333
-0.0702586
-0.0719075
-0.0735869
-0.0752911
-0.0770316
-0.0788096
-0.080619
-0.0824545
-0.0843246
-0.0862215
-0.0881589
-0.0901202
-0.0921252
-0.0941521
-0.0962194
-0.0983143
-0.100445
-0.102624
-0.104828
-0.107087
-0.109358
-0.111697
-0.114048
-0.116459
-0.11887
-0.121293
-0.123495
-0.125578
0.0473345
0.0344382
0.0193478
0.00973144
0.0054019
0.00419567
0.00353975
0.00217926
0.000311049
-0.00135652
-0.00248143
-0.00328677
-0.00413954
-0.00510552
-0.00609684
-0.00712106
-0.00810268
-0.00892495
-0.00971549
-0.0106293
-0.0116032
-0.0125504
-0.013462
-0.0143468
-0.015247
-0.0162033
-0.0172013
-0.0181832
-0.0190983
-0.0199678
-0.0208551
-0.021767
-0.0226612
-0.023528
-0.0244119
-0.0253313
-0.0262503
-0.0271601
-0.028099
-0.0290681
-0.0300367
-0.0310099
-0.0320067
-0.0330143
-0.0340077
-0.0350059
-0.0360321
-0.0370771
-0.0381482
-0.0392682
-0.0404188
-0.0415659
-0.0426994
-0.043866
-0.0450486
-0.0462093
-0.047396
-0.0486484
-0.049918
-0.0512034
-0.0525266
-0.0538794
-0.055248
-0.0566359
-0.058056
-0.0594905
-0.0609344
-0.0623927
-0.0638943
-0.0654392
-0.0670291
-0.0686332
-0.0702584
-0.0719073
-0.0735867
-0.075291
-0.0770314
-0.0788094
-0.0806188
-0.0824543
-0.0843245
-0.0862214
-0.0881588
-0.0901201
-0.0921251
-0.094152
-0.0962193
-0.0983142
-0.100445
-0.102624
-0.104828
-0.107087
-0.109357
-0.111697
-0.114048
-0.116459
-0.11887
-0.121293
-0.123495
-0.125578
0.0456126
0.0344273
0.0195883
0.00994886
0.0055282
0.00424631
0.00356558
0.00220153
0.000330066
-0.00134185
-0.0024708
-0.00327935
-0.00413431
-0.00510127
-0.00609256
-0.00711673
-0.00809872
-0.0089213
-0.00971207
-0.0106263
-0.0116004
-0.0125477
-0.0134596
-0.0143446
-0.015245
-0.0162014
-0.0171996
-0.0181818
-0.019097
-0.0199666
-0.020854
-0.021766
-0.0226602
-0.0235271
-0.0244111
-0.0253305
-0.0262496
-0.0271594
-0.0280984
-0.0290676
-0.0300362
-0.0310094
-0.0320062
-0.0330138
-0.0340073
-0.0350054
-0.0360316
-0.0370767
-0.0381478
-0.0392678
-0.0404184
-0.0415656
-0.042699
-0.0438657
-0.0450483
-0.046209
-0.0473957
-0.0486481
-0.0499177
-0.0512031
-0.0525263
-0.0538791
-0.0552477
-0.0566357
-0.0580558
-0.0594903
-0.0609342
-0.0623925
-0.0638941
-0.065439
-0.0670289
-0.068633
-0.0702583
-0.0719071
-0.0735866
-0.0752908
-0.0770313
-0.0788093
-0.0806187
-0.0824542
-0.0843244
-0.0862213
-0.0881586
-0.09012
-0.092125
-0.0941519
-0.0962192
-0.0983141
-0.100445
-0.102624
-0.104828
-0.107087
-0.109357
-0.111697
-0.114048
-0.116459
-0.11887
-0.121293
-0.123495
-0.125578
0.0439025
0.0342903
0.0198258
0.0101817
0.00566962
0.00429993
0.00359399
0.00223116
0.000359637
-0.00131553
-0.00245075
-0.00326701
-0.00412801
-0.00509778
-0.0060891
-0.00711221
-0.00809375
-0.00891692
-0.00970867
-0.0106234
-0.0115975
-0.0125445
-0.0134566
-0.014342
-0.0152428
-0.0161994
-0.0171977
-0.01818
-0.0190955
-0.0199652
-0.0208527
-0.0217648
-0.0226591
-0.0235261
-0.0244102
-0.0253297
-0.0262489
-0.0271587
-0.0280977
-0.029067
-0.0300357
-0.0310089
-0.0320057
-0.0330134
-0.0340068
-0.035005
-0.0360312
-0.0370763
-0.0381473
-0.0392673
-0.040418
-0.0415653
-0.0426987
-0.0438653
-0.045048
-0.0462086
-0.0473954
-0.0486478
-0.0499174
-0.0512029
-0.052526
-0.0538789
-0.0552475
-0.0566354
-0.0580556
-0.0594901
-0.060934
-0.0623923
-0.0638939
-0.0654388
-0.0670287
-0.0686328
-0.0702581
-0.071907
-0.0735865
-0.0752907
-0.0770311
-0.0788091
-0.0806186
-0.0824541
-0.0843242
-0.0862211
-0.0881585
-0.0901199
-0.0921249
-0.0941518
-0.0962191
-0.098314
-0.100445
-0.102624
-0.104828
-0.107087
-0.109357
-0.111697
-0.114048
-0.116459
-0.11887
-0.121293
-0.123495
-0.125578
0.0421449
0.034018
0.0200623
0.0104303
0.00581986
0.00435494
0.00362141
0.00226362
0.00039754
-0.0012772
-0.00241924
-0.00324726
-0.00411868
-0.00509416
-0.00608634
-0.00710722
-0.00808696
-0.00891102
-0.00970503
-0.0106209
-0.0115944
-0.0125405
-0.0134525
-0.0143385
-0.01524
-0.0161967
-0.0171949
-0.0181774
-0.0190933
-0.0199634
-0.0208511
-0.0217631
-0.0226575
-0.0235247
-0.024409
-0.0253286
-0.0262479
-0.0271577
-0.0280969
-0.0290663
-0.030035
-0.0310083
-0.0320052
-0.0330129
-0.0340064
-0.0350045
-0.0360307
-0.0370758
-0.0381469
-0.0392669
-0.0404176
-0.0415649
-0.0426983
-0.043865
-0.0450477
-0.0462083
-0.047395
-0.0486475
-0.0499171
-0.0512025
-0.0525257
-0.0538786
-0.0552472
-0.0566352
-0.0580553
-0.0594899
-0.0609338
-0.062392
-0.0638937
-0.0654386
-0.0670285
-0.0686327
-0.0702579
-0.0719068
-0.0735863
-0.0752905
-0.077031
-0.078809
-0.0806184
-0.082454
-0.0843241
-0.086221
-0.0881584
-0.0901198
-0.0921248
-0.0941517
-0.096219
-0.0983139
-0.100445
-0.102624
-0.104828
-0.107087
-0.109357
-0.111697
-0.114048
-0.116459
-0.11887
-0.121293
-0.123496
-0.125578
0.0403776
0.0336507
0.0203103
0.0106974
0.00597605
0.00440953
0.00364502
0.00229415
0.000437667
-0.00123271
-0.00237992
-0.00322123
-0.00410596
-0.00508977
-0.00608401
-0.00710177
-0.0080783
-0.00890338
-0.00970083
-0.0106185
-0.0115912
-0.0125358
-0.0134473
-0.0143343
-0.0152368
-0.0161936
-0.017191
-0.0181734
-0.0190901
-0.0199611
-0.0208489
-0.0217608
-0.0226552
-0.0235228
-0.0244074
-0.0253271
-0.0262464
-0.0271564
-0.0280958
-0.0290653
-0.0300342
-0.0310075
-0.0320045
-0.0330123
-0.0340058
-0.0350039
-0.0360301
-0.0370752
-0.0381464
-0.0392664
-0.0404172
-0.0415645
-0.0426979
-0.0438646
-0.0450473
-0.0462079
-0.0473946
-0.0486471
-0.0499168
-0.0512022
-0.0525254
-0.0538783
-0.0552469
-0.0566349
-0.058055
-0.0594897
-0.0609335
-0.0623918
-0.0638934
-0.0654384
-0.0670283
-0.0686325
-0.0702578
-0.0719066
-0.0735861
-0.0752903
-0.0770308
-0.0788088
-0.0806183
-0.0824538
-0.084324
-0.0862209
-0.0881583
-0.0901196
-0.0921246
-0.0941516
-0.0962188
-0.0983138
-0.100445
-0.102624
-0.104827
-0.107087
-0.109357
-0.111697
-0.114048
-0.116459
-0.11887
-0.121293
-0.123496
-0.125579
0.0386339
0.0331928
0.0205586
0.0109761
0.00613477
0.00446236
0.00366423
0.00232177
0.000477714
-0.001186
-0.00233683
-0.00319131
-0.00409058
-0.0050844
-0.00608177
-0.00709604
-0.00806839
-0.00889438
-0.00969592
-0.0106158
-0.0115877
-0.0125305
-0.0134414
-0.0143297
-0.0152336
-0.0161901
-0.0171862
-0.0181678
-0.0190856
-0.0199579
-0.020846
-0.0217575
-0.022652
-0.0235203
-0.0244053
-0.025325
-0.0262444
-0.0271547
-0.0280943
-0.029064
-0.0300331
-0.0310066
-0.0320037
-0.0330116
-0.0340052
-0.0350033
-0.0360294
-0.0370746
-0.0381458
-0.0392659
-0.0404167
-0.041564
-0.0426975
-0.0438641
-0.0450469
-0.0462074
-0.0473941
-0.0486467
-0.0499164
-0.0512018
-0.0525251
-0.053878
-0.0552466
-0.0566346
-0.0580547
-0.0594894
-0.0609332
-0.0623915
-0.0638931
-0.0654381
-0.0670281
-0.0686322
-0.0702575
-0.0719064
-0.0735859
-0.0752901
-0.0770306
-0.0788087
-0.0806181
-0.0824537
-0.0843238
-0.0862207
-0.0881582
-0.0901195
-0.0921245
-0.0941515
-0.0962187
-0.0983137
-0.100445
-0.102624
-0.104827
-0.107087
-0.109357
-0.111696
-0.114048
-0.116459
-0.11887
-0.121294
-0.123497
-0.125579
0.0369316
0.0326384
0.0207915
0.0112623
0.00629637
0.00451468
0.00367988
0.00234686
0.000517671
-0.00113801
-0.0022916
-0.00315895
-0.00407328
-0.00507813
-0.00607951
-0.00709031
-0.00805792
-0.0088846
-0.00969038
-0.0106125
-0.0115835
-0.0125245
-0.013435
-0.014325
-0.0152306
-0.0161868
-0.0171806
-0.0181611
-0.01908
-0.019954
-0.0208423
-0.0217531
-0.0226478
-0.0235171
-0.0244028
-0.0253225
-0.0262418
-0.0271524
-0.0280923
-0.0290622
-0.0300315
-0.0310054
-0.0320026
-0.0330107
-0.0340045
-0.0350026
-0.0360286
-0.0370738
-0.0381451
-0.0392653
-0.040416
-0.0415635
-0.0426971
-0.0438637
-0.0450464
-0.046207
-0.0473937
-0.0486462
-0.0499159
-0.0512014
-0.0525247
-0.0538776
-0.0552462
-0.0566342
-0.0580544
-0.059489
-0.0609329
-0.0623911
-0.0638927
-0.0654378
-0.0670278
-0.068632
-0.0702573
-0.0719062
-0.0735857
-0.0752899
-0.0770304
-0.0788085
-0.0806179
-0.0824535
-0.0843237
-0.0862206
-0.088158
-0.0901194
-0.0921244
-0.0941514
-0.0962186
-0.0983136
-0.100445
-0.102624
-0.104827
-0.107087
-0.109357
-0.111696
-0.114047
-0.116458
-0.11887
-0.121294
-0.123498
-0.12558
0.0352846
0.0319857
0.0209963
0.0115542
0.00646421
0.0045697
0.00369354
0.00236957
0.000557435
-0.00108897
-0.00224486
-0.00312488
-0.00405454
-0.00507116
-0.00607733
-0.00708483
-0.00804733
-0.00887444
-0.00968444
-0.0106088
-0.0115788
-0.0125179
-0.0134282
-0.0143201
-0.0152279
-0.0161836
-0.0171749
-0.0181537
-0.0190736
-0.0199494
-0.020838
-0.0217478
-0.0226426
-0.0235132
-0.0243998
-0.0253195
-0.0262389
-0.0271498
-0.0280899
-0.0290598
-0.0300294
-0.0310037
-0.0320012
-0.0330096
-0.0340037
-0.0350018
-0.0360276
-0.0370728
-0.0381443
-0.0392644
-0.0404151
-0.0415628
-0.0426966
-0.0438632
-0.0450458
-0.0462065
-0.0473932
-0.0486456
-0.0499153
-0.0512009
-0.0525242
-0.0538771
-0.0552458
-0.0566338
-0.0580541
-0.0594887
-0.0609325
-0.0623907
-0.0638923
-0.0654374
-0.0670275
-0.0686316
-0.070257
-0.0719059
-0.0735854
-0.0752896
-0.0770301
-0.0788082
-0.0806177
-0.0824532
-0.0843235
-0.0862204
-0.0881578
-0.0901192
-0.0921242
-0.0941512
-0.0962184
-0.0983135
-0.100444
-0.102623
-0.104827
-0.107086
-0.109357
-0.111696
-0.114047
-0.116458
-0.11887
-0.121294
-0.123499
-0.125582
0.0337062
0.0312383
0.0211617
0.0118514
0.00664218
0.0046299
0.00370575
0.00238876
0.00059582
-0.00103949
-0.002197
-0.00308945
-0.00403466
-0.00506371
-0.00607535
-0.00707973
-0.00803681
-0.0088641
-0.00967831
-0.0106049
-0.0115737
-0.0125109
-0.013421
-0.0143152
-0.0152253
-0.0161806
-0.0171693
-0.0181461
-0.0190669
-0.0199445
-0.0208331
-0.0217418
-0.0226367
-0.0235087
-0.0243964
-0.0253162
-0.0262357
-0.0271471
-0.0280873
-0.0290571
-0.0300269
-0.0310015
-0.0319993
-0.0330081
-0.0340027
-0.035001
-0.0360266
-0.0370717
-0.0381433
-0.0392633
-0.0404138
-0.0415618
-0.0426959
-0.0438626
-0.0450452
-0.046206
-0.0473927
-0.0486451
-0.0499146
-0.0512003
-0.0525237
-0.0538766
-0.0552453
-0.0566334
-0.0580537
-0.0594883
-0.0609322
-0.0623903
-0.0638919
-0.0654369
-0.0670271
-0.0686313
-0.0702566
-0.0719055
-0.073585
-0.0752893
-0.0770298
-0.0788079
-0.0806174
-0.082453
-0.0843232
-0.0862201
-0.0881576
-0.090119
-0.092124
-0.094151
-0.0962183
-0.0983133
-0.100444
-0.102623
-0.104827
-0.107086
-0.109357