/*--------------------------------*- C++ -*----------------------------------*\
| =========                 |                                                 |
| \\      /  F ield         | OpenFOAM: The Open Source CFD Toolbox           |
|  \\    /   O peration     | Version:  3.0.1                                 |
|   \\  /    A nd           | Web:      www.OpenFOAM.org                      |
|    \\/     M anipulation  |                                                 |
\*---------------------------------------------------------------------------*/
FoamFile
{
    version     2.0;
    format      ascii;
    class       surfaceScalarField;
    location    "4.1";
    object      phi;
}
// * * * * * * * * * * * * * * * * * * * * * * * * * * * * * * * * * * * * * //

dimensions      [0 3 -1 0 0 0 0];

internalField   nonuniform List<scalar> 
19000
(
1.1472e-06
-1.27597e-07
1.17964e-06
-2.83519e-07
1.17708e-06
-3.2555e-07
1.16454e-06
7.81411e-07
1.13523e-06
9.82696e-07
1.1267e-06
-6.78424e-07
1.17276e-06
-6.31483e-07
1.17326e-06
-1.77928e-06
1.21695e-06
-2.26997e-07
1.22452e-06
-1.25832e-07
1.20055e-06
2.60594e-07
1.20315e-06
7.52717e-07
1.17615e-06
5.31424e-07
1.16203e-06
3.12525e-07
1.16827e-06
4.22937e-07
1.13465e-06
-5.55842e-07
1.16137e-06
1.99274e-07
1.097e-06
-8.47647e-07
1.12541e-06
-4.69892e-08
-7.86922e-07
1.01007e-06
1.20287e-06
-1.06209e-07
1.23564e-06
-3.16282e-07
1.23347e-06
-3.23387e-07
1.22436e-06
7.90521e-07
1.18997e-06
1.01709e-06
1.1777e-06
-6.66157e-07
1.21738e-06
-6.71162e-07
1.22094e-06
-1.78285e-06
1.26594e-06
-2.71997e-07
1.2821e-06
-1.41992e-07
1.25154e-06
2.91158e-07
1.26038e-06
7.43882e-07
1.23261e-06
5.59191e-07
1.22158e-06
3.23558e-07
1.22388e-06
4.2063e-07
1.20823e-06
-5.4019e-07
1.21844e-06
1.89065e-07
1.18326e-06
-8.12471e-07
1.18252e-06
-4.62418e-08
-7.21352e-07
1.11695e-06
1.26154e-06
-8.49642e-08
1.29312e-06
-3.47859e-07
1.29336e-06
-3.23636e-07
1.28685e-06
7.97036e-07
1.25255e-06
1.0514e-06
1.23493e-06
-6.48538e-07
1.26684e-06
-7.0307e-07
1.27475e-06
-1.79076e-06
1.31706e-06
-3.1431e-07
1.33958e-06
-1.64504e-07
1.31073e-06
3.20001e-07
1.31143e-06
7.43181e-07
1.29557e-06
5.75051e-07
1.28333e-06
3.35802e-07
1.29236e-06
4.11603e-07
1.27792e-06
-5.25748e-07
1.29092e-06
1.76065e-07
1.26042e-06
-7.81974e-07
1.26421e-06
-5.00368e-08
-6.67681e-07
1.21054e-06
1.32388e-06
-6.47371e-08
1.35219e-06
-3.76177e-07
1.3557e-06
-3.27143e-07
1.35005e-06
8.02685e-07
1.32001e-06
1.08143e-06
1.29836e-06
-6.26881e-07
1.3211e-06
-7.25813e-07
1.33255e-06
-1.80221e-06
1.37197e-06
-3.53728e-07
1.39758e-06
-1.90111e-07
1.37522e-06
3.42357e-07
1.3689e-06
7.49503e-07
1.36034e-06
5.83613e-07
1.35512e-06
3.41016e-07
1.36202e-06
4.04703e-07
1.34759e-06
-5.11311e-07
1.35783e-06
1.65821e-07
1.3237e-06
-7.4784e-07
1.32898e-06
-5.53191e-08
-6.08934e-07
1.27023e-06
1.39077e-06
-4.71537e-08
1.41351e-06
-3.98915e-07
1.41964e-06
-3.33271e-07
1.41393e-06
8.0839e-07
1.39097e-06
1.10439e-06
1.36777e-06
-6.03678e-07
1.38133e-06
-7.3937e-07
1.39287e-06
-1.81375e-06
1.43018e-06
-3.9104e-07
1.4563e-06
-2.16224e-07
1.44245e-06
3.56198e-07
1.43538e-06
7.56574e-07
1.4311e-06
5.87897e-07
1.43023e-06
3.41883e-07
1.43779e-06
3.97141e-07
1.41974e-06
-4.93255e-07
1.43082e-06
1.54741e-07
1.39334e-06
-7.10366e-07
1.40016e-06
-6.21406e-08
-5.48677e-07
1.33991e-06
1.46234e-06
-3.38175e-08
1.478e-06
-4.14574e-07
1.48449e-06
-3.39766e-07
1.47965e-06
8.13235e-07
1.46521e-06
1.11883e-06
1.44293e-06
-5.81395e-07
1.44774e-06
-7.44181e-07
1.45539e-06
-1.82141e-06
1.49083e-06
-4.26478e-07
1.5164e-06
-2.41793e-07
1.51118e-06
3.61419e-07
1.50792e-06
7.5983e-07
1.50712e-06
5.88701e-07
1.50816e-06
3.40843e-07
1.51481e-06
3.90494e-07
1.4937e-06
-4.72151e-07
1.5038e-06
1.44645e-07
1.4628e-06
-6.69364e-07
1.47128e-06
-7.06226e-08
-4.874e-07
1.41e-06
1.53772e-06
-2.53222e-08
1.54618e-06
-4.23031e-07
1.55046e-06
-3.4405e-07
1.54853e-06
8.15164e-07
1.54314e-06
1.12422e-06
1.52338e-06
-5.61639e-07
1.51998e-06
-7.40782e-07
1.52076e-06
-1.82218e-06
1.55407e-06
-4.59789e-07
1.57872e-06
-2.6644e-07
1.58168e-06
3.5846e-07
1.58405e-06
7.57456e-07
1.58637e-06
5.86379e-07
1.58802e-06
3.39199e-07
1.59326e-06
3.85252e-07
1.56898e-06
-4.47875e-07
1.57905e-06
1.34577e-07
1.53506e-06
-6.25374e-07
1.54503e-06
-8.05958e-08
-4.26601e-07
1.48424e-06
1.61579e-06
-2.09851e-08
1.61802e-06
-4.25262e-07
1.61869e-06
-3.44717e-07
1.62161e-06
8.12249e-07
1.62496e-06
1.12087e-06
1.6083e-06
-5.44981e-07
1.59746e-06
-7.29947e-07
1.58992e-06
-1.81464e-06
1.6206e-06
-4.90463e-07
1.64381e-06
-2.89654e-07
1.65444e-06
3.47836e-07
1.66267e-06
7.49226e-07
1.66749e-06
5.81559e-07
1.66904e-06
3.37647e-07
1.67294e-06
3.81349e-07
1.64571e-06
-4.20643e-07
1.65614e-06
1.24144e-07
1.60983e-06
-5.79066e-07
1.62102e-06
-9.17813e-08
-3.6754e-07
1.56196e-06
1.69597e-06
-1.93826e-08
1.69339e-06
-4.22685e-07
1.69072e-06
-3.42045e-07
1.69946e-06
8.03513e-07
1.71037e-06
1.10996e-06
1.69655e-06
-5.31159e-07
1.67967e-06
-7.13071e-07
1.66374e-06
-1.79871e-06
1.69092e-06
-5.17636e-07
1.71173e-06
-3.10468e-07
1.72922e-06
3.30345e-07
1.7428e-06
7.35649e-07
1.7495e-06
5.74861e-07
1.75055e-06
3.36589e-07
1.75374e-06
3.78166e-07
1.72398e-06
-3.90885e-07
1.7352e-06
1.12927e-07
1.68746e-06
-5.31332e-07
1.6994e-06
-1.03721e-07
-3.11432e-07
1.64329e-06
1.77845e-06
-1.91129e-08
1.7724e-06
-4.16628e-07
1.76773e-06
-3.37377e-07
1.78216e-06
7.89082e-07
1.79879e-06
1.09333e-06
1.78704e-06
-5.19412e-07
1.76619e-06
-6.92219e-07
1.74277e-06
-1.77529e-06
1.76529e-06
-5.40158e-07
1.78237e-06
-3.2755e-07
1.80529e-06
3.0743e-07
1.82333e-06
7.176e-07
1.83166e-06
5.66532e-07
1.83229e-06
3.3596e-07
1.83571e-06
3.7475e-07
1.80415e-06
-3.59325e-07
1.81636e-06
1.00713e-07
1.76817e-06
-4.83135e-07
1.78028e-06
-1.15833e-07
-2.59315e-07
1.72816e-06
1.8639e-06
-1.92603e-08
1.85542e-06
-4.08153e-07
1.85015e-06
-3.32105e-07
1.86931e-06
7.69924e-07
1.88975e-06
1.07288e-06
1.87918e-06
-5.08844e-07
1.85666e-06
-6.69697e-07
1.8271e-06
-1.74573e-06
1.84404e-06
-5.57097e-07
1.85616e-06
-3.39673e-07
1.88241e-06
2.81183e-07
1.90382e-06
6.96187e-07
1.91397e-06
5.5638e-07
1.91464e-06
3.35293e-07
1.91931e-06
3.70084e-07
1.88681e-06
-3.2683e-07
1.90002e-06
8.75011e-08
1.85229e-06
-4.35396e-07
1.86389e-06
-1.27442e-07
-2.1204e-07
1.81662e-06
1.95302e-06
-1.94457e-08
1.94295e-06
-3.98077e-07
1.93784e-06
-3.26991e-07
1.96032e-06
7.47439e-07
1.9831e-06
1.0501e-06
1.97302e-06
-4.98763e-07
1.95077e-06
-6.47451e-07
1.91649e-06
-1.71145e-06
1.92769e-06
-5.68295e-07
1.93432e-06
-3.46306e-07
1.96166e-06
2.53849e-07
1.98515e-06
6.72689e-07
1.99746e-06
5.44072e-07
1.99867e-06
3.34085e-07
2.00531e-06
3.6344e-07
1.97273e-06
-2.94242e-07
1.98668e-06
7.35511e-08
1.94021e-06
-3.88934e-07
1.95057e-06
-1.37798e-07
-1.70286e-07
1.90882e-06
2.04638e-06
-1.96408e-08
2.03535e-06
-3.87041e-07
2.03044e-06
-3.22086e-07
2.05482e-06
7.2306e-07
2.07907e-06
1.02586e-06
2.06916e-06
-4.88858e-07
2.0484e-06
-6.26688e-07
2.0106e-06
-1.67364e-06
2.01675e-06
-5.74454e-07
2.01829e-06
-3.47843e-07
2.04498e-06
2.27157e-07
2.06921e-06
6.48462e-07
2.08376e-06
5.29521e-07
2.08574e-06
3.32112e-07
2.09458e-06
3.54596e-07
2.0626e-06
-2.62264e-07
2.07686e-06
5.92914e-08
2.03237e-06
-3.44447e-07
2.04072e-06
-1.46149e-07
-1.34511e-07
2.00495e-06
2.14431e-06
-1.99518e-08
2.1328e-06
-3.75533e-07
2.12772e-06
-3.17003e-07
2.15282e-06
6.9796e-07
2.17814e-06
1.00054e-06
2.16845e-06
-4.79166e-07
2.14965e-06
-6.07884e-07
2.10919e-06
-1.63318e-06
2.11147e-06
-5.76736e-07
2.10891e-06
-3.45283e-07
2.1341e-06
2.01967e-07
2.15781e-06
6.2475e-07
2.17432e-06
5.13008e-07
2.17703e-06
3.29409e-07
2.18783e-06
3.43791e-07
2.15706e-06
-2.31488e-07
2.17107e-06
4.52788e-08
2.12918e-06
-3.02557e-07
2.13493e-06
-1.51895e-07
-1.04832e-07
2.10525e-06
2.24701e-06
-2.04748e-08
2.23539e-06
-3.63913e-07
2.22965e-06
-3.11259e-07
2.25468e-06
6.72928e-07
2.28092e-06
9.74295e-07
2.27165e-06
-4.69899e-07
2.2548e-06
-5.91033e-07
2.21225e-06
-1.59063e-06
2.21176e-06
-5.76251e-07
2.2061e-06
-3.3962e-07
2.22966e-06
1.78402e-07
2.25196e-06
6.0245e-07
2.26995e-06
4.95016e-07
2.27334e-06
3.26018e-07
2.28562e-06
3.31514e-07
2.25657e-06
-2.02434e-07
2.26978e-06
3.20687e-08
2.23098e-06
-2.63755e-07
2.23383e-06
-1.54753e-07
-8.09533e-08
2.20995e-06
2.35464e-06
-2.12351e-08
2.34315e-06
-3.52428e-07
2.33638e-06
-3.04492e-07
2.36094e-06
6.48376e-07
2.38799e-06
9.47242e-07
2.37934e-06
-4.61253e-07
2.36423e-06
-5.75919e-07
2.31991e-06
-1.54631e-06
2.31744e-06
-5.73786e-07
2.30926e-06
-3.31438e-07
2.33144e-06
1.56227e-07
2.35193e-06
5.81962e-07
2.37094e-06
4.76005e-07
2.37518e-06
3.21779e-07
2.38839e-06
3.18305e-07
2.36149e-06
-1.7554e-07
2.37344e-06
2.0118e-08
2.33801e-06
-2.2832e-07
2.33803e-06
-1.54777e-07
-6.22188e-08
2.3193e-06
2.46735e-06
-2.21849e-08
2.45616e-06
-3.41242e-07
2.44821e-06
-2.96542e-07
2.47219e-06
6.244e-07
2.49992e-06
9.19505e-07
2.49195e-06
-4.53281e-07
2.4783e-06
-5.62269e-07
2.4324e-06
-1.5004e-06
2.42847e-06
-5.69857e-07
2.41795e-06
-3.20919e-07
2.43902e-06
1.35154e-07
2.45778e-06
5.63201e-07
2.47747e-06
4.56313e-07
2.48292e-06
3.16328e-07
2.49656e-06
3.04673e-07
2.47213e-06
-1.51115e-07
2.4825e-06
9.75059e-09
2.45045e-06
-1.96268e-07
2.44793e-06
-1.52258e-07
-4.78174e-08
2.43353e-06
2.58534e-06
-2.32315e-08
2.57455e-06
-3.3045e-07
2.56543e-06
-2.87419e-07
2.58896e-06
6.00868e-07
2.61722e-06
8.91244e-07
2.60981e-06
-4.45869e-07
2.59733e-06
-5.49797e-07
2.54996e-06
-1.45303e-06
2.54499e-06
-5.64885e-07
2.53217e-06
-3.08104e-07
2.55237e-06
1.14954e-07
2.56983e-06
5.45744e-07
2.58992e-06
4.36225e-07
2.59698e-06
3.09264e-07
2.61055e-06
2.91106e-07
2.58871e-06
-1.2927e-07
2.59736e-06
1.0935e-09
2.56843e-06
-1.67333e-07
2.56382e-06
-1.47649e-07
-3.69444e-08
2.55295e-06
2.70887e-06
-2.42696e-08
2.69852e-06
-3.20099e-07
2.68833e-06
-2.77234e-07
2.71168e-06
5.77517e-07
2.74031e-06
8.62614e-07
2.73324e-06
-4.38792e-07
2.72166e-06
-5.38225e-07
2.6729e-06
-1.40427e-06
2.66731e-06
-5.59301e-07
2.65235e-06
-2.93142e-07
2.67185e-06
9.54532e-08
2.6886e-06
5.28996e-07
2.70875e-06
4.1608e-07
2.7177e-06
3.00304e-07
2.73074e-06
2.78072e-07
2.71137e-06
-1.09898e-07
2.71838e-06
-5.9241e-09
2.6921e-06
-1.41054e-07
2.68588e-06
-1.41426e-07
-2.89313e-08
2.67787e-06
2.8382e-06
-2.52043e-08
2.82831e-06
-3.10211e-07
2.81721e-06
-2.66126e-07
2.84067e-06
5.54056e-07
2.86954e-06
8.33737e-07
2.86254e-06
-4.31791e-07
2.85163e-06
-5.27312e-07
2.80153e-06
-1.35416e-06
2.79577e-06
-5.53542e-07
2.77899e-06
-2.76364e-07
2.79792e-06
7.65246e-08
2.81457e-06
5.12342e-07
2.83435e-06
3.96299e-07
2.84529e-06
2.89368e-07
2.85742e-06
2.65939e-07
2.8402e-06
-9.26758e-08
2.84581e-06
-1.1533e-08
2.82171e-06
-1.16953e-07
2.81421e-06
-1.33929e-07
-2.333e-08
2.80861e-06
2.97365e-06
-2.59608e-08
2.96424e-06
-3.00797e-07
2.95233e-06
-2.54213e-07
2.97613e-06
5.3025e-07
3.00519e-06
8.04683e-07
2.99801e-06
-4.24619e-07
2.9876e-06
-5.16895e-07
2.93621e-06
-1.30277e-06
2.93064e-06
-5.47971e-07
2.9125e-06
-2.5823e-07
2.93089e-06
5.81364e-08
2.94804e-06
4.95193e-07
2.96696e-06
3.77376e-07
2.97979e-06
2.76537e-07
2.99083e-06
2.54901e-07
2.97528e-06
-7.71285e-08
2.97982e-06
-1.60669e-08
2.95755e-06
-9.46843e-08
2.94892e-06
-1.25305e-07
-1.98508e-08
2.94544e-06
3.11553e-06
-2.64837e-08
3.10661e-06
-2.91875e-07
3.09398e-06
-2.41588e-07
3.11827e-06
5.05956e-07
3.14748e-06
7.75474e-07
3.13993e-06
-4.17063e-07
3.12993e-06
-5.06899e-07
3.07731e-06
-1.25015e-06
3.07215e-06
-5.42811e-07
3.05317e-06
-2.3925e-07
3.07091e-06
4.03968e-08
3.08907e-06
4.77037e-07
3.10667e-06
3.5977e-07
3.12119e-06
2.62017e-07
3.13117e-06
2.44925e-07
3.11673e-06
-6.26874e-08
3.12054e-06
-1.98808e-08
3.09999e-06
-7.41363e-08
3.09016e-06
-1.15469e-07
-1.82935e-08
3.0886e-06
3.26416e-06
-2.67322e-08
3.25575e-06
-2.83462e-07
3.24248e-06
-2.28322e-07
3.2673e-06
4.81141e-07
3.29668e-06
7.46091e-07
3.28856e-06
-4.08942e-07
3.27899e-06
-4.97332e-07
3.22522e-06
-1.19638e-06
3.22053e-06
-5.38117e-07
3.2012e-06
-2.19926e-07
3.21804e-06
2.35561e-08
3.23764e-06
4.57439e-07
3.25356e-06
3.43848e-07
3.26947e-06
2.46106e-07
3.27865e-06
2.35751e-07
3.26475e-06
-4.87843e-08
3.26811e-06
-2.3244e-08
3.24942e-06
-5.5447e-08
3.23817e-06
-1.04219e-07
-1.84228e-08
3.2383e-06
3.41988e-06
-2.66763e-08
3.41199e-06
-2.75575e-07
3.39816e-06
-2.14494e-07
3.42344e-06
4.55864e-07
3.45305e-06
7.16474e-07
3.4442e-06
-4.00087e-07
3.43512e-06
-4.88256e-07
3.38032e-06
-1.14159e-06
3.376e-06
-5.33794e-07
3.35683e-06
-2.0075e-07
3.3724e-06
7.97909e-09
3.39378e-06
4.36066e-07
3.40781e-06
3.29817e-07
3.42471e-06
2.29205e-07
3.4335e-06
2.26961e-07
3.41967e-06
-3.49592e-08
3.42269e-06
-2.62614e-08
3.40615e-06
-3.89045e-08
3.39336e-06
-9.14367e-08
-1.9814e-08
3.39476e-06
3.58303e-06
-2.62937e-08
3.57567e-06
-2.6822e-07
3.56137e-06
-2.00194e-07
3.58698e-06
4.30256e-07
3.61691e-06
6.86542e-07
3.60717e-06
-3.90341e-07
3.59865e-06
-4.79742e-07
3.54301e-06
-1.08594e-06
3.53884e-06
-5.29627e-07
3.5203e-06
-1.82204e-07
3.53419e-06
-5.91609e-09
3.55755e-06
4.12712e-07
3.5697e-06
3.17668e-07
3.58706e-06
2.11839e-07
3.59595e-06
2.18074e-07
3.58192e-06
-2.0925e-08
3.5845e-06
-2.88428e-08
3.57044e-06
-2.48502e-08
3.55625e-06
-7.72384e-08
-2.17716e-08
3.5582e-06
3.75398e-06
-2.55697e-08
3.74715e-06
-2.61383e-07
3.7325e-06
-1.8555e-07
3.75826e-06
4.045e-07
3.7886e-06
6.56197e-07
3.77783e-06
-3.79566e-07
3.76992e-06
-4.7184e-07
3.71368e-06
-1.02969e-06
3.70938e-06
-5.25331e-07
3.69192e-06
-1.64747e-07
3.70374e-06
-1.77281e-08
3.72911e-06
3.87341e-07
3.73963e-06
3.07148e-07
3.7568e-06
1.94667e-07
3.76626e-06
2.0861e-07
3.75195e-06
-6.61374e-09
3.7538e-06
-3.06919e-08
3.74254e-06
-1.35922e-08
3.7273e-06
-6.20002e-08
-2.34505e-08
3.72898e-06
3.93312e-06
-2.44979e-08
3.92676e-06
-2.55028e-07
3.91193e-06
-1.70719e-07
3.93762e-06
3.78815e-07
3.96847e-06
6.25339e-07
3.95656e-06
-3.67654e-07
3.94927e-06
-4.64551e-07
3.89273e-06
-9.73152e-07
3.88797e-06
-5.20566e-07
3.87205e-06
-1.48831e-07
3.88142e-06
-2.71008e-08
3.90867e-06
3.60089e-07
3.91797e-06
2.9785e-07
3.93427e-06
1.78365e-07
3.94467e-06
1.98216e-07
3.93025e-06
7.80116e-09
3.93097e-06
-3.14034e-08
3.92267e-06
-5.29692e-09
3.90696e-06
-4.62882e-08
-2.39995e-08
3.90751e-06
4.12083e-06
-2.30797e-08
4.1149e-06
-2.49093e-07
4.10007e-06
-1.5589e-07
4.12545e-06
3.53435e-07
4.1569e-06
5.93884e-07
4.14379e-06
-3.54545e-07
4.13705e-06
-4.57811e-07
4.0806e-06
-9.16697e-07
4.07499e-06
-5.14956e-07
4.06103e-06
-1.34868e-07
4.06772e-06
-3.37931e-08
4.09653e-06
3.31279e-07
4.10512e-06
2.89256e-07
4.11996e-06
1.63526e-07
4.1314e-06
1.86776e-07
4.11727e-06
2.1928e-08
4.11647e-06
-3.05999e-08
4.11105e-06
1.25256e-10
4.0956e-06
-3.08356e-08
-2.27606e-08
4.09436e-06
4.31755e-06
-2.13238e-08
4.31195e-06
-2.43498e-07
4.29733e-06
-1.41265e-07
4.32218e-06
3.28586e-07
4.35428e-06
5.6178e-07
4.33998e-06
-3.40248e-07
4.33365e-06
-4.51475e-07
4.27771e-06
-8.60758e-07
4.27088e-06
-5.08129e-07
4.2592e-06
-1.23191e-07
4.26313e-06
-3.77167e-08
4.29298e-06
3.01424e-07
4.30148e-06
2.80764e-07
4.31435e-06
1.5065e-07
4.32677e-06
1.74354e-07
4.31345e-06
3.52482e-08
4.31086e-06
-2.80013e-08
4.30794e-06
3.03945e-09
4.29355e-06
-1.64433e-08
-1.9403e-08
4.29019e-06
4.52369e-06
-1.92448e-08
4.51835e-06
-2.38148e-07
4.50412e-06
-1.2704e-07
4.52824e-06
3.04466e-07
4.561e-06
5.29018e-07
4.54561e-06
-3.24853e-07
4.53945e-06
-4.45323e-07
4.48449e-06
-8.05795e-07
4.47611e-06
-4.99743e-07
4.46695e-06
-1.14039e-07
4.46819e-06
-3.89496e-08
4.49844e-06
2.71168e-07
4.5074e-06
2.71804e-07
4.51803e-06
1.40017e-07
4.53118e-06
1.6121e-07
4.5192e-06
4.72302e-08
4.51471e-06
-2.35146e-08
4.51369e-06
4.05745e-09
4.50112e-06
-3.87265e-09
-1.39646e-08
4.49568e-06
4.73973e-06
-1.68613e-08
4.73453e-06
-2.3295e-07
4.72087e-06
-1.13379e-07
4.7441e-06
2.81235e-07
4.77747e-06
4.95647e-07
4.76114e-06
-3.08524e-07
4.75491e-06
-4.39087e-07
4.70139e-06
-7.52276e-07
4.69116e-06
-4.89516e-07
4.68461e-06
-1.0749e-07
4.68345e-06
-3.77873e-08
4.71338e-06
2.41241e-07
4.72327e-06
2.61916e-07
4.73161e-06
1.31671e-07
4.74503e-06
1.47791e-07
4.7349e-06
5.73672e-08
4.72865e-06
-1.72718e-08
4.72871e-06
3.99535e-09
4.71864e-06
6.20575e-09
-6.77335e-09
4.71144e-06
4.96613e-06
-1.41937e-08
4.961e-06
-2.27824e-07
4.94801e-06
-1.00386e-07
4.97025e-06
2.58994e-07
5.00414e-06
4.61762e-07
4.98711e-06
-2.91493e-07
4.98049e-06
-4.32468e-07
4.92883e-06
-7.00617e-07
4.91659e-06
-4.77279e-07
4.91253e-06
-1.03428e-07
4.90946e-06
-3.47186e-08
4.93831e-06
2.12391e-07
4.94947e-06
2.50762e-07
4.95567e-06
1.2547e-07
4.96888e-06
1.34574e-07
4.9609e-06
6.5353e-08
4.95328e-06
-9.65435e-09
4.95358e-06
3.70013e-09
4.94634e-06
1.34436e-08
1.45785e-09
4.93811e-06
5.20339e-06
-1.12649e-08
5.19828e-06
-2.22721e-07
5.18599e-06
-8.80899e-08
5.2072e-06
2.37786e-07
5.24148e-06
4.27481e-07
5.22402e-06
-2.74033e-07
5.21671e-06
-4.25162e-07
5.1673e-06
-6.51202e-07
5.15295e-06
-4.62933e-07
5.1511e-06
-1.01574e-07
5.14677e-06
-3.03905e-08
5.17382e-06
1.85342e-07
5.1864e-06
2.38176e-07
5.19078e-06
1.21091e-07
5.20331e-06
1.22049e-07
5.1976e-06
7.10602e-08
5.18913e-06
-1.17893e-09
5.18904e-06
3.7902e-09
5.18439e-06
1.80851e-08
9.73137e-09
5.17612e-06
5.45202e-06
-8.10036e-09
5.44693e-06
-2.17626e-07
5.43528e-06
-7.64409e-08
5.45545e-06
2.17613e-07
5.49e-06
3.92934e-07
5.47238e-06
-2.56407e-07
5.46413e-06
-4.16917e-07
5.41727e-06
-6.04342e-07
5.40081e-06
-4.46473e-07
5.40079e-06
-1.01553e-07
5.39582e-06
-2.5421e-08
5.42055e-06
1.60616e-07
5.43451e-06
2.24213e-07
5.43755e-06
1.18053e-07
5.44893e-06
1.10665e-07
5.44542e-06
7.45681e-08
5.43669e-06
7.55712e-09
5.43578e-06
4.69423e-09
5.43314e-06
2.07284e-08
1.7013e-08
5.42586e-06
5.71259e-06
-4.73111e-09
5.70752e-06
-2.12558e-07
5.69642e-06
-6.53415e-08
5.71557e-06
1.98466e-07
5.75025e-06
3.5825e-07
5.73268e-06
-2.38834e-07
5.72331e-06
-4.07551e-07
5.67926e-06
-5.60292e-07
5.66082e-06
-4.28028e-07
5.66211e-06
-1.02849e-07
5.65709e-06
-2.03954e-08
5.67918e-06
1.3852e-07
5.69427e-06
2.09126e-07
5.69647e-06
1.15851e-07
5.70638e-06
1.00754e-07
5.70488e-06
7.60749e-08
5.69644e-06
1.59927e-08
5.69455e-06
6.5845e-09
5.6932e-06
2.20821e-08
2.26886e-08
5.68752e-06
5.98566e-06
-1.19751e-09
5.98065e-06
-2.0755e-07
5.97003e-06
-5.47194e-08
5.98811e-06
1.80388e-07
6.0228e-06
3.23555e-07
6.00546e-06
-2.21492e-07
5.99485e-06
-3.96935e-07
5.95382e-06
-5.1927e-07
5.93361e-06
-4.07814e-07
5.93565e-06
-1.04886e-07
5.93102e-06
-1.57708e-08
5.9504e-06
1.19139e-07
5.96624e-06
1.93288e-07
5.96804e-06
1.14054e-07
5.97636e-06
9.24357e-08
5.97651e-06
7.59157e-08
5.96882e-06
2.3683e-08
5.96604e-06
9.37067e-09
5.96531e-06
2.28145e-08
2.65692e-08
5.96142e-06
6.27184e-06
2.44743e-09
6.26693e-06
-2.02633e-07
6.25682e-06
-4.46119e-08
6.27365e-06
1.63554e-07
6.30825e-06
2.88953e-07
6.29131e-06
-2.04548e-07
6.27932e-06
-3.8495e-07
6.24152e-06
-4.81467e-07
6.21988e-06
-3.86168e-07
6.22204e-06
-1.07046e-07
6.21808e-06
-1.18163e-08
6.23483e-06
1.02393e-07
6.25102e-06
1.77094e-07
6.25283e-06
1.12249e-07
6.2595e-06
8.57593e-08
6.26096e-06
7.44573e-08
6.25429e-06
3.03586e-08
6.25093e-06
1.27268e-08
6.25026e-06
2.34816e-08
2.88977e-08
6.24793e-06
6.57178e-06
6.13371e-09
6.56695e-06
-1.978e-07
6.55751e-06
-3.51724e-08
6.57282e-06
1.48248e-07
6.60717e-06
2.54598e-07
6.5909e-06
-1.88279e-07
6.57728e-06
-3.71331e-07
6.5428e-06
-4.46979e-07
6.52021e-06
-3.63584e-07
6.52189e-06
-1.08725e-07
6.51873e-06
-8.65693e-09
6.53298e-06
8.81396e-08
6.54924e-06
1.60842e-07
6.55136e-06
1.1013e-07
6.55652e-06
8.05978e-08
6.55889e-06
7.20837e-08
6.5534e-06
3.58505e-08
6.54975e-06
1.6372e-08
6.54896e-06
2.42778e-08
3.02579e-08
6.5476e-06
6.88616e-06
9.76635e-09
6.8813e-06
-1.92944e-07
6.87281e-06
-2.66782e-08
6.88619e-06
1.34866e-07
6.92012e-06
2.20672e-07
6.90486e-06
-1.73027e-07
6.88927e-06
-3.5574e-07
6.85789e-06
-4.15592e-07
6.83508e-06
-3.40781e-07
6.83588e-06
-1.09524e-07
6.8334e-06
-6.17425e-09
6.84542e-06
7.61184e-08
6.86153e-06
1.44734e-07
6.86423e-06
1.07427e-07
6.86808e-06
7.6752e-08
6.87101e-06
6.91454e-08
6.86673e-06
4.01323e-08
6.86312e-06
1.99811e-08
6.86212e-06
2.52823e-08
3.11138e-08
6.86126e-06
7.21568e-06
1.32265e-08
7.21054e-06
-1.87806e-07
7.20341e-06
-1.95512e-08
7.2144e-06
1.23879e-07
7.24757e-06
1.875e-07
7.23385e-06
-1.59309e-07
7.21617e-06
-3.38057e-07
7.1875e-06
-3.86919e-07
7.16512e-06
-3.18407e-07
7.16481e-06
-1.09208e-07
7.16271e-06
-4.08227e-09
7.17278e-06
6.60546e-08
7.18849e-06
1.29017e-07
7.19209e-06
1.03834e-07
7.1949e-06
7.39407e-08
7.19805e-06
6.59947e-08
7.19499e-06
4.319e-08
7.19156e-06
2.34128e-08
7.19054e-06
2.6302e-08
3.18206e-08
7.18983e-06
7.56107e-06
1.63794e-08
7.5553e-06
-1.82037e-07
7.55005e-06
-1.42972e-08
7.55835e-06
1.15577e-07
7.59017e-06
1.55678e-07
7.57858e-06
-1.47719e-07
7.55887e-06
-3.18339e-07
7.53233e-06
-3.60379e-07
7.511e-06
-2.97079e-07
7.50945e-06
-1.07658e-07
7.5075e-06
-2.13353e-09
7.51576e-06
5.77904e-08
7.53093e-06
1.13851e-07
7.53558e-06
9.91791e-08
7.53772e-06
7.18073e-08
7.54076e-06
6.29493e-08
7.53889e-06
4.5063e-08
7.53577e-06
2.65333e-08
7.5348e-06
2.72689e-08
3.24225e-08
7.5342e-06
7.92312e-06
1.90752e-08
7.91633e-06
-1.75249e-07
7.91346e-06
-1.14274e-08
7.91903e-06
1.10006e-07
7.94898e-06
1.25732e-07
7.94022e-06
-1.38963e-07
7.91893e-06
-2.97046e-07
7.89377e-06
-3.35222e-07
7.87325e-06
-2.76557e-07
7.8705e-06
-1.04906e-07
7.86864e-06
-2.72565e-10
7.87529e-06
5.11319e-08
7.88962e-06
9.95221e-08
7.8954e-06
9.34013e-08
7.89727e-06
6.99361e-08
7.89997e-06
6.02559e-08
7.89917e-06
4.58626e-08
7.8965e-06
2.91997e-08
7.89557e-06
2.82004e-08
3.28447e-08
7.89515e-06
8.30259e-06
2.11648e-08
8.29439e-06
-1.67048e-07
8.29445e-06
-1.14893e-08
8.29747e-06
1.06984e-07
8.32547e-06
9.77348e-08
8.32061e-06
-1.34103e-07
8.29754e-06
-2.73979e-07
8.27144e-06
-3.09114e-07
8.25164e-06
-2.56757e-07
8.24866e-06
-1.01927e-07
8.24712e-06
1.25883e-09
8.25229e-06
4.59674e-08
8.26547e-06
8.63364e-08
8.27229e-06
8.65907e-08
8.27421e-06
6.80102e-08
8.27658e-06
5.78839e-08
8.27653e-06
4.59188e-08
8.27448e-06
3.12482e-08
8.27366e-06
2.90143e-08
3.3107e-08
8.2734e-06
8.70032e-06
2.25105e-08
8.69043e-06
-1.57162e-07
8.69356e-06
-1.46212e-08
8.69512e-06
1.05422e-07
8.71817e-06
7.46877e-08
8.71299e-06
-1.28919e-07
8.68999e-06
-2.50982e-07
8.66499e-06
-2.84117e-07
8.64729e-06
-2.39053e-07
8.64492e-06
-9.95591e-08
8.64392e-06
2.26295e-09
8.64784e-06
4.20426e-08
8.65951e-06
7.46704e-08
8.66712e-06
7.89811e-08
8.66933e-06
6.58009e-08
8.67144e-06
5.57713e-08
8.67183e-06
4.55327e-08
8.6704e-06
3.26771e-08
8.66982e-06
2.9587e-08
3.31769e-08
8.66975e-06
9.11708e-06
2.30483e-08
9.10551e-06
-1.45586e-07
9.11096e-06
-2.00803e-08
9.11168e-06
1.04712e-07
9.12799e-06
5.83709e-08
9.12642e-06
-1.27342e-07
9.10485e-06
-2.29416e-07
9.0794e-06
-2.5867e-07
9.06194e-06
-2.2159e-07
9.05998e-06
-9.75968e-08
9.0599e-06
2.34508e-09
9.06275e-06
3.91906e-08
9.07278e-06
6.46381e-08
9.08075e-06
7.10079e-08
9.0835e-06
6.30565e-08
9.08543e-06
5.38386e-08
9.08616e-06
4.48013e-08
9.08527e-06
3.35714e-08
9.08496e-06
2.98978e-08
3.2938e-08
9.0852e-06
9.55375e-06
2.27612e-08
9.54057e-06
-1.32411e-07
9.54767e-06
-2.71838e-08
9.54956e-06
1.02828e-07
9.56041e-06
4.75142e-08
9.55963e-06
-1.26558e-07
9.53991e-06
-2.09691e-07
9.51442e-06
-2.33181e-07
9.49652e-06
-2.03694e-07
9.49478e-06
-9.58548e-08
9.49587e-06
1.25344e-09
9.49798e-06
3.7082e-08
9.50637e-06
5.62513e-08
9.51422e-06
6.3159e-08
9.51757e-06
5.96993e-08
9.51944e-06
5.1967e-08
9.52044e-06
4.38057e-08
9.51996e-06
3.40533e-08
9.5199e-06
2.99523e-08
3.22631e-08
9.52058e-06
1.00112e-05
2.17136e-08
9.99678e-06
-1.18008e-07
1.00046e-05
-3.50037e-08
1.0009e-05
9.84379e-08
1.0015e-05
4.15318e-08
1.00133e-05
-1.24933e-07
9.99597e-06
-1.92314e-07
9.97097e-06
-2.08176e-07
9.95238e-06
-1.8511e-07
9.95039e-06
-9.38638e-08
9.95257e-06
-9.22525e-10
9.95452e-06
3.51264e-08
9.96118e-06
4.95915e-08
9.96865e-06
5.56851e-08
9.97254e-06
5.58142e-08
9.97449e-06
5.00174e-08
9.97558e-06
4.27103e-08
9.97561e-06
3.4029e-08
9.97564e-06
2.99216e-08
3.12033e-08
9.9767e-06
1.04903e-05
2.0055e-08
1.04754e-05
-1.03077e-07
1.04827e-05
-4.23214e-08
1.04907e-05
9.04503e-08
1.04926e-05
3.95685e-08
1.04889e-05
-1.21211e-07
1.04737e-05
-1.77064e-07
1.045e-05
-1.8455e-07
1.0431e-05
-1.6606e-07
1.04278e-05
-9.06907e-08
1.04309e-05
-4.04049e-09
1.04332e-05
3.28651e-08
1.04384e-05
4.44166e-08
1.04452e-05
4.88784e-08
1.04494e-05
5.15837e-08
1.04515e-05
4.79278e-08
1.04527e-05
4.15005e-08
1.04532e-05
3.35595e-08
1.04532e-05
2.98485e-08
2.99189e-08
1.04545e-05
1.09921e-05
1.80001e-08
1.09774e-05
-8.84398e-08
1.09832e-05
-4.80656e-08
1.09949e-05
7.87642e-08
1.09942e-05
4.02237e-08
1.09874e-05
-1.14403e-07
1.09738e-05
-1.63495e-07
1.09524e-05
-1.63125e-07
1.09333e-05
-1.46991e-07
1.09287e-05
-8.60101e-08
1.0932e-05
-7.34858e-09
1.09348e-05
3.00629e-08
1.0939e-05
4.02204e-08
1.09448e-05
4.29969e-08
1.09493e-05
4.71097e-08
1.09516e-05
4.56688e-08
1.09529e-05
4.02091e-08
1.09536e-05
3.27922e-08
1.0954e-05
2.95361e-08
2.86641e-08
1.09552e-05
1.15176e-05
1.58108e-08
1.1504e-05
-7.49121e-08
1.15074e-05
-5.14711e-08
1.15219e-05
6.4328e-08
1.15206e-05
4.15212e-08
1.15101e-05
-1.03979e-07
1.14975e-05
-1.5084e-07
1.14788e-05
-1.44417e-07
1.14604e-05
-1.2856e-07
1.14542e-05
-7.99014e-08
1.14569e-05
-1.00412e-08
1.14603e-05
2.67354e-08
1.14639e-05
3.65983e-08
1.14689e-05
3.79854e-08
1.14734e-05
4.26389e-08
1.14759e-05
4.31586e-08
1.14772e-05
3.88901e-08
1.14781e-05
3.18461e-08
1.14789e-05
2.88084e-08
2.76726e-08
1.14799e-05
1.20679e-05
1.37671e-08
1.20562e-05
-6.32357e-08
1.20568e-05
-5.20966e-08
1.20725e-05
4.86207e-08
1.20723e-05
4.16936e-08
1.20588e-05
-9.03849e-08
1.20458e-05
-1.37901e-07
1.20299e-05
-1.28528e-07
1.2013e-05
-1.11642e-07
1.20057e-05
-7.25895e-08
1.20074e-05
-1.1708e-08
1.20108e-05
2.32869e-08
1.20141e-05
3.33328e-08
1.20184e-05
3.36402e-08
1.20227e-05
3.83637e-08
1.20255e-05
4.03143e-08
1.20269e-05
3.74956e-08
1.20279e-05
3.08715e-08
1.2029e-05
2.77484e-08
2.67801e-08
1.20299e-05
1.26442e-05
1.21318e-08
1.26345e-05
-5.35577e-08
1.26321e-05
-4.96619e-08
1.26479e-05
3.28642e-08
1.265e-05
3.95299e-08
1.26346e-05
-7.49889e-08
1.26203e-05
-1.2358e-07
1.26069e-05
-1.15072e-07
1.25921e-05
-9.68521e-08
1.25841e-05
-6.46262e-08
1.25847e-05
-1.22568e-08
1.25877e-05
2.0234e-08
1.25908e-05
3.02385e-08
1.25945e-05
2.99602e-08
1.25986e-05
3.4217e-08
1.26017e-05
3.72265e-08
1.26033e-05
3.59126e-08
1.26042e-05
2.99717e-08
1.26055e-05
2.64476e-08
2.57172e-08
1.26066e-05
1.3248e-05
1.11026e-08
1.32396e-05
-4.51583e-08
1.32345e-05
-4.4638e-08
1.32491e-05
1.82726e-08
1.32543e-05
3.43812e-08
1.32387e-05
-5.94362e-08
1.32228e-05
-1.07628e-07
1.32108e-05
-1.03065e-07
1.31983e-05
-8.44334e-08
1.31907e-05
-5.69699e-08
1.31901e-05
-1.1615e-08
1.31925e-05
1.78092e-08
1.31952e-05
2.75002e-08
1.31984e-05
2.6765e-08
1.32023e-05
3.0353e-08
1.32056e-05
3.39307e-08
1.32075e-05
3.39495e-08
1.32084e-05
2.9139e-08
1.32097e-05
2.51405e-08
2.4395e-08
1.3211e-05
1.38805e-05
1.07532e-08
1.38743e-05
-3.89443e-08
1.38671e-05
-3.7426e-08
1.38782e-05
7.14119e-09
1.38859e-05
2.67169e-08
1.3872e-05
-4.55114e-08
1.38549e-05
-9.05373e-08
1.38431e-05
-9.12696e-08
1.38329e-05
-7.42974e-08
1.38263e-05
-5.02829e-08
1.38249e-05
-1.02581e-08
1.38265e-05
1.61594e-08
1.38288e-05
2.52781e-08
1.38315e-05
2.40795e-08
1.3835e-05
2.67633e-08
1.38385e-05
3.05164e-08
1.38407e-05
3.16677e-08
1.38418e-05
2.80882e-08
1.38429e-05
2.39853e-08
2.28376e-08
1.38445e-05
1.45433e-05
1.11136e-08
1.4538e-05
-3.36756e-08
1.45302e-05
-2.95677e-08
1.45373e-05
2.24914e-12
1.45462e-05
1.77883e-08
1.45355e-05
-3.4722e-08
1.4518e-05
-7.31297e-08
1.45058e-05
-7.89799e-08
1.44971e-05
-6.56595e-08
1.44917e-05
-4.48466e-08
1.44904e-05
-9.00095e-09
1.44913e-05
1.52818e-08
1.4493e-05
2.36214e-08
1.4495e-05
2.20252e-08
1.44982e-05
2.35331e-08
1.45017e-05
2.71045e-08
1.45043e-05
2.89804e-08
1.45057e-05
2.6713e-08
1.45067e-05
2.29758e-08
2.11896e-08
1.45084e-05
1.52379e-05
1.20505e-08
1.52337e-05
-2.94687e-08
1.52257e-05
-2.15401e-08
1.52286e-05
-2.93635e-09
1.52374e-05
9.0715e-09
1.52302e-05
-2.75867e-08
1.52137e-05
-5.65656e-08
1.52008e-05
-6.60868e-08
1.51924e-05
-5.73255e-08
1.51882e-05
-4.06554e-08
1.51876e-05
-8.35521e-09
1.51882e-05
1.46405e-08
1.51892e-05
2.26345e-08
1.51907e-05
2.05502e-08
1.51934e-05
2.08555e-08
1.51967e-05
2.37438e-08
1.51997e-05
2.606e-08
1.52015e-05
2.48972e-08
1.52025e-05
2.19134e-08
1.96336e-08
1.52041e-05
1.5966e-05
1.33582e-08
1.59621e-05
-2.55814e-08
1.59549e-05
-1.43248e-08
1.59542e-05
-2.20696e-09
1.59611e-05
2.18696e-09
1.59575e-05
-2.39878e-08
1.5943e-05
-4.21124e-08
1.59297e-05
-5.27717e-08
1.5921e-05
-4.86428e-08
1.59174e-05
-3.70366e-08
1.59175e-05
-8.49055e-09
1.59186e-05
1.36152e-08
1.59191e-05
2.20914e-08
1.592e-05
1.96401e-08
1.59221e-05
1.87545e-08
1.59252e-05
2.06622e-08
1.59282e-05
2.30557e-08
1.59305e-05
2.26246e-08
1.59318e-05
2.05706e-08
1.82309e-08
1.59332e-05
1.67291e-05
1.48212e-08
1.67244e-05
-2.08802e-08
1.67188e-05
-8.67188e-09
1.67159e-05
7.0412e-10
1.67197e-05
-1.64656e-09
1.67187e-05
-2.29706e-08
1.67072e-05
-3.06452e-08
1.66941e-05
-3.96624e-08
1.6685e-05
-3.94927e-08
1.6681e-05
-3.30727e-08
1.66817e-05
-9.21216e-09
1.66834e-05
1.18958e-08
1.66842e-05
2.13674e-08
1.66846e-05
1.9239e-08
1.6686e-05
1.72902e-08
1.66887e-05
1.80078e-08
1.66917e-05
2.00347e-08
1.66942e-05
2.0123e-08
1.6696e-05
1.88252e-08
1.67982e-08
1.66974e-05
1.7529e-05
1.62167e-08
1.75242e-05
-1.60826e-08
1.75195e-05
-4.02714e-09
1.75155e-05
4.75995e-09
1.75157e-05
-1.93079e-09
1.75157e-05
-2.28834e-08
1.75075e-05
-2.24488e-08
1.74955e-05
-2.7708e-08
1.7486e-05
-2.99539e-08
1.74813e-05
-2.83625e-08
1.74819e-05
-9.87175e-09
1.74843e-05
9.51339e-09
1.74856e-05
2.00332e-08
1.74859e-05
1.89824e-08
1.74868e-05
1.6355e-08
1.7489e-05
1.58662e-08
1.74918e-05
1.71761e-08
1.74944e-05
1.75554e-08
1.74965e-05
1.66779e-08
1.51643e-08
1.74982e-05
1.83672e-05
1.74015e-08
1.83619e-05
-1.07965e-08
1.83582e-05
-3.89179e-10
1.83542e-05
8.8009e-09
1.83514e-05
8.44744e-10
1.83506e-05
-2.2027e-08
1.83453e-05
-1.72199e-08
1.83353e-05
-1.7683e-08
1.83257e-05
-2.03879e-08
1.83203e-05
-2.28918e-08
1.83202e-05
-9.81187e-09
1.83229e-05
6.79585e-09
1.8325e-05
1.8004e-08
1.83256e-05
1.83469e-08
1.83262e-05
1.57632e-08
1.83278e-05
1.42158e-08
1.83304e-05
1.46307e-08
1.8333e-05
1.49272e-08
1.83352e-05
1.44539e-08
1.32584e-08
1.83371e-05