/*--------------------------------*- C++ -*----------------------------------*\
| =========                 |                                                 |
| \\      /  F ield         | OpenFOAM: The Open Source CFD Toolbox           |
|  \\    /   O peration     | Version:  3.0.1                                 |
|   \\  /    A nd           | Web:      www.OpenFOAM.org                      |
|    \\/     M anipulation  |                                                 |
\*---------------------------------------------------------------------------*/
FoamFile
{
    version     2.0;
    format      ascii;
    class       volVectorField;
    location    "4.1";
    object      U;
}
// * * * * * * * * * * * * * * * * * * * * * * * * * * * * * * * * * * * * * //

dimensions      [0 1 -1 0 0 0 0];

internalField   nonuniform List<vector> 
9600
(
(0.896182 -0.00143608 0)
(1.06062 -0.00283981 0)
(0.96355 -0.00389079 0)
(1.04633 0.0100613 0)
(0.952083 0.0136102 0)
(0.987268 -0.0105284 0)
(0.945877 -0.00994266 0)
(1.05443 -0.0323018 0)
(0.960329 -0.00380147 0)
(1.11534 -0.00256565 0)
(0.988677 0.00578911 0)
(1.0569 0.0192971 0)
(1.00589 0.0143128 0)
(1.0088 0.00910436 0)
(0.981407 0.0140754 0)
(1.01165 -0.0206882 0)
(0.942029 0.00852844 0)
(1.03069 -0.0377453 0)
(0.86297 -0.00138225 0)
(1.04096 -0.0414028 0)
(0.906268 -0.0011849 0)
(1.05252 -0.00325563 0)
(0.969993 -0.00387126 0)
(1.04164 0.0101527 0)
(0.962458 0.0140522 0)
(0.978916 -0.0103357 0)
(0.949036 -0.0109282 0)
(1.03334 -0.0323772 0)
(0.964865 -0.00494303 0)
(1.09822 -0.00282965 0)
(1.00118 0.00638186 0)
(1.0402 0.0190571 0)
(1.01961 0.0150556 0)
(0.99581 0.00960498 0)
(0.999758 0.0138462 0)
(0.99496 -0.0195641 0)
(0.987094 0.00750672 0)
(0.989988 -0.0354296 0)
(0.956287 -0.00146017 0)
(0.957069 -0.042038 0)
(0.923901 -0.000952583 0)
(1.03809 -0.0036502 0)
(0.980902 -0.0038481 0)
(1.03296 0.0102923 0)
(0.976373 0.0145853 0)
(0.974597 -0.0101076 0)
(0.954509 -0.0115388 0)
(1.01504 -0.0324678 0)
(0.975084 -0.00586978 0)
(1.07468 -0.00329452 0)
(1.01724 0.00715086 0)
(1.02428 0.0188967 0)
(1.02057 0.0157848 0)
(1.00108 0.010035 0)
(0.999747 0.0136797 0)
(1.00984 -0.0189953 0)
(0.991507 0.00684059 0)
(1.00645 -0.0332736 0)
(0.97395 -0.00330207 0)
(0.977071 -0.0339111 0)
(0.945093 -0.000743232 0)
(1.02156 -0.00398433 0)
(0.992213 -0.00386435 0)
(1.02324 0.010372 0)
(0.987714 0.0150448 0)
(0.974973 -0.00979989 0)
(0.96054 -0.0119787 0)
(1.00031 -0.032695 0)
(0.984387 -0.00663983 0)
(1.05449 -0.00382962 0)
(1.02734 0.00781889 0)
(1.0174 0.0190236 0)
(1.01952 0.0161343 0)
(1.00617 0.0102681 0)
(1.00984 0.0134981 0)
(1.01172 -0.0187556 0)
(1.00233 0.00691189 0)
(1.00331 -0.0329296 0)
(0.982622 -0.00213363 0)
(0.974708 -0.0319302 0)
(0.965366 -0.000550158 0)
(1.00788 -0.0042667 0)
(1.00027 -0.00392755 0)
(1.01459 0.0104284 0)
(0.994751 0.0154229 0)
(0.979185 -0.00944332 0)
(0.966773 -0.0122783 0)
(0.99039 -0.0329121 0)
(0.989176 -0.00736239 0)
(1.03986 -0.00439206 0)
(1.02995 0.0082659 0)
(1.01681 0.0192465 0)
(1.0216 0.0163 0)
(1.01212 0.0103603 0)
(1.01833 0.0131731 0)
(1.01826 -0.0179576 0)
(1.00725 0.00617664 0)
(1.00914 -0.0308547 0)
(0.987348 -0.00266576 0)
(0.980529 -0.0288856 0)
(0.981414 -0.000392199 0)
(0.999796 -0.0044771 0)
(1.00372 -0.00401107 0)
(1.00746 0.0104979 0)
(0.998852 0.0156968 0)
(0.985472 -0.00908462 0)
(0.973785 -0.0124295 0)
(0.984238 -0.0330855 0)
(0.989852 -0.00808616 0)
(1.02897 -0.00495129 0)
(1.02781 0.00848198 0)
(1.01823 0.0193989 0)
(1.02551 0.0163711 0)
(1.01845 0.0103327 0)
(1.02491 0.0129809 0)
(1.02275 -0.0173458 0)
(1.01146 0.00585191 0)
(1.01069 -0.0292817 0)
(0.99078 -0.00315008 0)
(0.98296 -0.0258787 0)
(0.992071 -0.000283727 0)
(0.996848 -0.00460333 0)
(1.00338 -0.00407854 0)
(1.00152 0.0105567 0)
(1.00198 0.0158465 0)
(0.992371 -0.00875351 0)
(0.981753 -0.0124371 0)
(0.980488 -0.0331617 0)
(0.988407 -0.00877354 0)
(1.02006 -0.00549051 0)
(1.02362 0.00850065 0)
(1.01967 0.0194169 0)
(1.02933 0.0163492 0)
(1.02386 0.0102934 0)
(1.02959 0.012778 0)
(1.02562 -0.0164979 0)
(1.01407 0.00545757 0)
(1.01205 -0.027431 0)
(0.993281 -0.00359112 0)
(0.985479 -0.0227458 0)
(0.99804 -0.000223075 0)
(0.996819 -0.00465444 0)
(1.00097 -0.00410656 0)
(0.996709 0.0105654 0)
(1.00524 0.0158692 0)
(0.998924 -0.00846545 0)
(0.990106 -0.0123095 0)
(0.978346 -0.0331 0)
(0.986524 -0.00940698 0)
(1.01229 -0.00600628 0)
(1.01876 0.00833372 0)
(1.02052 0.0192807 0)
(1.03212 0.016255 0)
(1.02749 0.0102334 0)
(1.03241 0.012634 0)
(1.02683 -0.0155629 0)
(1.01545 0.00505587 0)
(1.01245 -0.0255103 0)
(0.995076 -0.00409362 0)
(0.987344 -0.0197181 0)
(1.00088 -0.00019744 0)
(0.997585 -0.00464715 0)
(0.99803 -0.00409072 0)
(0.993318 0.0104998 0)
(1.00868 0.0157709 0)
(1.00452 -0.00822547 0)
(0.997844 -0.0120658 0)
(0.977677 -0.0328808 0)
(0.985013 -0.00998231 0)
(1.00525 -0.00648695 0)
(1.01346 0.00799147 0)
(1.02027 0.0189948 0)
(1.03323 0.016093 0)
(1.02895 0.0101829 0)
(1.03319 0.0125224 0)
(1.02663 -0.0145309 0)
(1.01558 0.00462097 0)
(1.01218 -0.0234851 0)
(0.996236 -0.00463797 0)
(0.988699 -0.0168251 0)
(1.00207 -0.000191514 0)
(0.998075 -0.00459576 0)
(0.995468 -0.00404121 0)
(0.99152 0.0103503 0)
(1.01184 0.0155727 0)
(1.00882 -0.00802775 0)
(1.00403 -0.0117371 0)
(0.978567 -0.0325099 0)
(0.983991 -0.0104795 0)
(0.998863 -0.00690352 0)
(1.00758 0.00750543 0)
(1.01831 0.0185748 0)
(1.0322 0.015879 0)
(1.02817 0.0101558 0)
(1.03203 0.0124112 0)
(1.02527 -0.013416 0)
(1.01471 0.00414807 0)
(1.0113 -0.0214205 0)
(0.996865 -0.00521246 0)
(0.989545 -0.014132 0)
(1.00253 -0.00019279 0)
(0.998153 -0.00451282 0)
(0.993619 -0.00397866 0)
(0.991052 0.0101256 0)
(1.0142 0.015304 0)
(1.0118 -0.00785976 0)
(1.00819 -0.0113631 0)
(0.980847 -0.0320129 0)
(0.983285 -0.0108738 0)
(0.993332 -0.00722044 0)
(1.00124 0.00691863 0)
(1.01443 0.0180499 0)
(1.02904 0.0156192 0)
(1.02549 0.0101389 0)
(1.02934 0.0122672 0)
(1.02311 -0.0122478 0)
(1.01318 0.00365178 0)
(1.00998 -0.0193669 0)
(0.997079 -0.00577627 0)
(0.989995 -0.0116765 0)
(1.00272 -0.000194928 0)
(0.998081 -0.00440876 0)
(0.992496 -0.00391818 0)
(0.991333 0.00984778 0)
(1.01548 0.0149921 0)
(1.01364 -0.00770835 0)
(1.0104 -0.0109831 0)
(0.983987 -0.0314216 0)
(0.982743 -0.0111528 0)
(0.989024 -0.00741754 0)
(0.995139 0.00628044 0)
(1.00923 0.0174589 0)
(1.02447 0.0153043 0)
(1.02165 0.0101108 0)
(1.02574 0.0120698 0)
(1.02053 -0.0110645 0)
(1.01131 0.00311047 0)
(1.00843 -0.0173606 0)
(0.996994 -0.00628042 0)
(0.990173 -0.00948866 0)
(1.00278 -0.000196494 0)
(0.998094 -0.00429209 0)
(0.991971 -0.00386118 0)
(0.991796 0.00953709 0)
(1.01568 0.0146533 0)
(1.01461 -0.00756394 0)
(1.01117 -0.010624 0)
(0.987312 -0.0307634 0)
(0.982337 -0.0113232 0)
(0.986121 -0.00749738 0)
(0.990167 0.00563767 0)
(1.00377 0.0168386 0)
(1.01947 0.014924 0)
(1.01747 0.0100698 0)
(1.02182 0.0118047 0)
(1.01786 -0.00988716 0)
(1.00938 0.00253612 0)
(1.00683 -0.0154401 0)
(0.99674 -0.00668265 0)
(0.990188 -0.00758892 0)
(1.00278 -0.000198698 0)
(0.998263 -0.00416804 0)
(0.991874 -0.00380386 0)
(0.992105 0.00921005 0)
(1.01507 0.0142968 0)
(1.01497 -0.00742129 0)
(1.01111 -0.0102977 0)
(0.990296 -0.0300557 0)
(0.982114 -0.0114053 0)
(0.984437 -0.00748007 0)
(0.986787 0.00502301 0)
(0.99892 0.0162205 0)
(1.01481 0.014482 0)
(1.01355 0.0100065 0)
(1.018 0.0114827 0)
(1.0153 -0.00875065 0)
(1.00757 0.00200068 0)
(1.00533 -0.0136317 0)
(0.996453 -0.00696207 0)
(0.990139 -0.00597382 0)
(1.00275 -0.000202835 0)
(0.99854 -0.00404061 0)
(0.992049 -0.00374125 0)
(0.992172 0.00888061 0)
(1.01397 0.0139282 0)
(1.01492 -0.00728155 0)
(1.01069 -0.0100045 0)
(0.992694 -0.0293073 0)
(0.982104 -0.0114221 0)
(0.983533 -0.00738912 0)
(0.98482 0.00444846 0)
(0.995029 0.0156318 0)
(1.01077 0.0139914 0)
(1.01012 0.00992167 0)
(1.01451 0.0111049 0)
(1.01298 -0.00766863 0)
(1.006 0.00146577 0)
(1.004 -0.011962 0)
(0.996234 -0.00711255 0)
(0.990111 -0.00464142 0)
(1.0027 -0.000209444 0)
(0.998842 -0.00391345 0)
(0.992371 -0.0036679 0)
(0.992068 0.00855705 0)
(1.01267 0.0135485 0)
(1.0146 -0.00714776 0)
(1.01016 -0.00973942 0)
(0.994495 -0.0285208 0)
(0.982281 -0.0113907 0)
(0.982987 -0.00723833 0)
(0.983718 0.00391089 0)
(0.991981 0.0150882 0)
(1.00731 0.0134711 0)
(1.00721 0.00981806 0)
(1.01146 0.0106787 0)
(1.01095 -0.00666248 0)
(1.00471 0.000958872 0)
(1.00289 -0.0104353 0)
(0.996139 -0.00714404 0)
(0.990164 -0.00357727 0)
(1.00264 -0.000218322 0)
(0.999104 -0.00378905 0)
(0.992748 -0.00358057 0)
(0.991915 0.00824187 0)
(1.0114 0.0131589 0)
(1.01414 -0.00702176 0)
(1.00962 -0.00949943 0)
(0.995792 -0.0277006 0)
(0.982587 -0.0113226 0)
(0.982572 -0.00703602 0)
(0.982996 0.00340123 0)
(0.989556 0.0145969 0)
(1.00436 0.0129276 0)
(1.00478 0.0096775 0)
(1.0089 0.0102345 0)
(1.00926 -0.00576012 0)
(1.00372 0.000541931 0)
(1.002 -0.00904593 0)
(0.996177 -0.00706084 0)
(0.990328 -0.00274023 0)
(1.00257 -0.000228661 0)
(0.999301 -0.0036688 0)
(0.993114 -0.00347852 0)
(0.991821 0.00793314 0)
(1.01028 0.0127634 0)
(1.01362 -0.00690488 0)
(1.00908 -0.00928047 0)
(0.996693 -0.0268533 0)
(0.982967 -0.0112292 0)
(0.982252 -0.00678391 0)
(0.982448 0.00291596 0)
(0.987647 0.0141455 0)
(1.00192 0.0123667 0)
(1.00285 0.00949074 0)
(1.00684 0.00978394 0)
(1.00791 -0.00495749 0)
(1.00299 0.000200593 0)
(1.00131 -0.00778207 0)
(0.996332 -0.00687549 0)
(0.990603 -0.00208193 0)
(1.00248 -0.000239416 0)
(0.999437 -0.00355322 0)
(0.993429 -0.00336296 0)
(0.991842 0.00762849 0)
(1.00937 0.0123634 0)
(1.01311 -0.00679523 0)
(1.00854 -0.00907852 0)
(0.997288 -0.02598 0)
(0.983393 -0.0111227 0)
(0.98208 -0.00647777 0)
(0.982089 0.00244611 0)
(0.986263 0.0137207 0)
(1.00004 0.0118056 0)
(1.00143 0.0092462 0)
(1.00524 0.00933547 0)
(1.00689 -0.00425155 0)
(1.0025 -8.01841e-05 0)
(1.00078 -0.00662185 0)
(0.99657 -0.00663276 0)
(0.990972 -0.0015787 0)
(1.00236 -0.000249727 0)
(0.999534 -0.00344243 0)
(0.993676 -0.00323574 0)
(0.991987 0.00732542 0)
(1.00866 0.0119588 0)
(1.01265 -0.00668925 0)
(1.00801 -0.00889003 0)
(0.997657 -0.0250809 0)
(0.983852 -0.0110101 0)
(0.982096 -0.00612811 0)
(0.981986 0.00199257 0)
(0.98542 0.0133007 0)
(0.998728 0.0112516 0)
(1.00048 0.00894892 0)
(1.00404 0.00891715 0)
(1.00613 -0.00363262 0)
(1.00218 -0.000311321 0)
(1.00037 -0.00554634 0)
(0.996851 -0.00635057 0)
(0.991418 -0.00121812 0)
(1.00221 -0.000258414 0)
(0.999614 -0.00333719 0)
(0.993859 -0.00309765 0)
(0.992235 0.00701875 0)
(1.0081 0.0115517 0)
(1.01223 -0.00658241 0)
(1.0075 -0.00871185 0)
(0.997874 -0.0241579 0)
(0.984337 -0.010899 0)
(0.982296 -0.00574852 0)
(0.98215 0.00155381 0)
(0.98506 0.0128772 0)
(0.997887 0.0107088 0)
(0.999928 0.00858413 0)
(1.00313 0.00854768 0)
(1.00556 -0.00307613 0)
(1.00198 -0.000501764 0)
(1.00004 -0.00454012 0)
(0.997136 -0.00601729 0)
(0.991924 -0.000988639 0)
(1.00205 -0.00026479 0)
(0.999691 -0.00323765 0)
(0.993995 -0.00295036 0)
(0.992551 0.00670615 0)
(1.00764 0.0111419 0)
(1.01184 -0.00647051 0)
(1.007 -0.00854221 0)
(0.998 -0.0232101 0)
(0.984843 -0.0107966 0)
(0.982637 -0.00534557 0)
(0.982532 0.00112541 0)
(0.985065 0.0124367 0)
(0.997376 0.010198 0)
(0.999643 0.00815123 0)
(1.00241 0.00822275 0)
(1.00508 -0.00255806 0)
(1.00187 -0.000664018 0)
(0.999756 -0.00360107 0)
(0.997396 -0.005618 0)
(0.992473 -0.000873043 0)
(1.00187 -0.000268747 0)
(0.999767 -0.00314365 0)
(0.994105 -0.00279538 0)
(0.992902 0.00638725 0)
(1.00722 0.0107289 0)
(1.01147 -0.0063508 0)
(1.00652 -0.00838014 0)
(0.998077 -0.0222392 0)
(0.985365 -0.0107035 0)
(0.983066 -0.00492707 0)
(0.983055 0.000714411 0)
(0.985303 0.0119565 0)
(0.997055 0.0097376 0)
(0.999514 0.00767499 0)
(1.00179 0.00792 0)
(1.00466 -0.00205888 0)
(1.0018 -0.000816278 0)
(0.999507 -0.00273505 0)
(0.99761 -0.00513907 0)
(0.993054 -0.000853601 0)
(1.00168 -0.00026963 0)
(0.999838 -0.00305543 0)
(0.994207 -0.00263294 0)
(0.993262 0.00606129 0)
(1.00683 0.010314 0)
(1.0111 -0.00622215 0)
(1.00606 -0.00822591 0)
(0.998129 -0.0212482 0)
(0.985904 -0.0106173 0)
(0.983537 -0.00451239 0)
(0.983653 0.000329648 0)
(0.985666 0.0114293 0)
(0.996825 0.00933397 0)
(0.999458 0.00716317 0)
(1.00125 0.0076279 0)
(1.00423 -0.00155956 0)
(1.00178 -0.000964224 0)
(0.999293 -0.00195999 0)
(0.997769 -0.00457569 0)
(0.993655 -0.000909359 0)
(1.00151 -0.000267482 0)
(0.999897 -0.00297238 0)
(0.994317 -0.00246484 0)
(0.993614 0.00573061 0)
(1.00646 0.00989411 0)
(1.01071 -0.00607958 0)
(1.00562 -0.00808282 0)
(0.998162 -0.0202391 0)
(0.986461 -0.0105369 0)
(0.984019 -0.0041037 0)
(0.984284 -1.54469e-05 0)
(0.986089 0.0108491 0)
(0.996632 0.00898292 0)
(0.999427 0.00663759 0)
(1.00076 0.00734631 0)
(1.0038 -0.00104799 0)
(1.00177 -0.00109621 0)
(0.999117 -0.00129275 0)
(0.997869 -0.00393783 0)
(0.994257 -0.00102294 0)
(1.00135 -0.000261715 0)
(0.999938 -0.00289602 0)
(0.994445 -0.00229204 0)
(0.99395 0.00539714 0)
(1.00611 0.00946738 0)
(1.01031 -0.00592109 0)
(1.0052 -0.00794951 0)
(0.998178 -0.0192177 0)
(0.987037 -0.0104565 0)
(0.984499 -0.00370924 0)
(0.984925 -0.000307512 0)
(0.986539 0.0102181 0)
(0.996451 0.00868334 0)
(0.999401 0.006112 0)
(1.00032 0.00703998 0)
(1.00335 -0.000530999 0)
(1.00179 -0.00120851 0)
(0.998986 -0.000744331 0)
(0.997911 -0.00323683 0)
(0.994846 -0.00115182 0)
(1.00122 -0.000252104 0)
(0.999959 -0.00282573 0)
(0.994593 -0.00211533 0)
(0.994266 0.00506297 0)
(1.00576 0.00903561 0)
(1.00988 -0.00574635 0)
(1.0048 -0.00782496 0)
(0.998178 -0.0181886 0)
(0.987632 -0.0103696 0)
(0.984971 -0.00335198 0)
(0.985565 -0.000552704 0)
(0.987004 0.00953557 0)
(0.996276 0.00842242 0)
(0.999366 0.00559831 0)
(0.999934 0.0067046 0)
(1.00287 -3.43287e-06 0)
(1.00181 -0.0012777 0)
(0.998907 -0.000327471 0)
(0.997903 -0.0024839 0)
(0.995395 -0.00124399 0)
(1.00112 -0.00023946 0)
(0.999962 -0.00275895 0)
(0.99476 -0.00193892 0)
(0.994567 0.00473248 0)
(1.00543 0.00859523 0)
(1.00944 -0.00554909 0)
(1.00442 -0.00771066 0)
(0.998162 -0.0171586 0)
(0.988243 -0.0102702 0)
(0.985438 -0.00302843 0)
(0.986194 -0.000742686 0)
(0.987482 0.00880553 0)
(0.996105 0.00817375 0)
(0.999322 0.00512161 0)
(0.9996 0.00633843 0)
(1.00238 0.000523407 0)
(1.00183 -0.00128108 0)
(0.998888 -4.93454e-05 0)
(0.997856 -0.00172007 0)
(0.995886 -0.00124956 0)
(1.00103 -0.000223445 0)
(0.999954 -0.00269603 0)
(0.994939 -0.00176367 0)
(0.994856 0.00440841 0)
(1.00511 0.00814378 0)
(1.00898 -0.00533488 0)
(1.00406 -0.00760197 0)
(0.998136 -0.0161327 0)
(0.988865 -0.0101488 0)
(0.985907 -0.00275413 0)
(0.986805 -0.000858474 0)
(0.987975 0.00804301 0)
(0.995941 0.00793572 0)
(0.999263 0.00470171 0)
(0.999322 0.0059289 0)
(1.00189 0.00103107 0)
(1.00183 -0.00121317 0)
(0.998927 0.000106217 0)
(0.99779 -0.00099969 0)
(0.996299 -0.00112951 0)
(1.00096 -0.000203601 0)
(0.999939 -0.00263744 0)
(0.995126 -0.00159082 0)
(0.995138 0.00409106 0)
(1.0048 0.00768477 0)
(1.00851 -0.00510726 0)
(1.00372 -0.00749785 0)
(0.998103 -0.0151216 0)
(0.989488 -0.00999408 0)
(0.986382 -0.00252907 0)
(0.987395 -0.000909425 0)
(0.988482 0.00726719 0)
(0.995788 0.00770151 0)
(0.999184 0.00435703 0)
(0.9991 0.00549302 0)
(1.0014 0.00149863 0)
(1.0018 -0.00106647 0)
(0.999021 0.000168103 0)
(0.997726 -0.000366866 0)
(0.996621 -0.000884761 0)
(1.00089 -0.000180856 0)
(0.999922 -0.00257968 0)
(0.995317 -0.00142677 0)
(0.995415 0.00378449 0)
(1.0045 0.0072188 0)
(1.00804 -0.00486271 0)
(1.0034 -0.00739754 0)
(0.998067 -0.0141362 0)
(0.99011 -0.00980785 0)
(0.986867 -0.00236235 0)
(0.987958 -0.000901088 0)
(0.989003 0.00649438 0)
(0.995654 0.00744065 0)
(0.999085 0.00408291 0)
(0.998929 0.00505193 0)
(1.00093 0.00189825 0)
(1.00173 -0.000843375 0)
(0.999159 0.000168744 0)
(0.997686 0.000125811 0)
(0.996853 -0.000527104 0)
(1.00083 -0.000155572 0)
(0.999907 -0.00252212 0)
(0.995508 -0.0012699 0)
(0.995687 0.00349143 0)
(1.00421 0.00674405 0)
(1.00756 -0.00460445 0)
(1.00309 -0.00729097 0)
(0.998032 -0.0131811 0)
(0.990721 -0.00958848 0)
(0.987366 -0.00225896 0)
(0.988495 -0.000844233 0)
(0.989534 0.00573783 0)
(0.995544 0.00713536 0)
(0.998968 0.00386529 0)
(0.998804 0.00461095 0)
(1.0005 0.00222104 0)
(1.00162 -0.000557568 0)
(0.999322 0.000145257 0)
(0.99769 0.000492846 0)
(0.997009 -9.87663e-05 0)
(1.00077 -0.000127125 0)
(0.999896 -0.00246567 0)
(0.995698 -0.00112021 0)
(0.995953 0.00321075 0)
(1.00393 0.00626335 0)
(1.00708 -0.00433968 0)
(1.00279 -0.00717322 0)
(0.998 -0.0122608 0)
(0.991319 -0.00932183 0)
(0.987879 -0.00220009 0)
(0.989005 -0.000753016 0)
(0.990068 0.00502457 0)
(0.995465 0.00679261 0)
(0.998832 0.00371042 0)
(0.998717 0.004185 0)
(1.0001 0.00246745 0)
(1.00146 -0.000226711 0)
(0.999496 0.000131926 0)
(0.997748 0.000757277 0)
(0.997105 0.000323091 0)
(1.00071 -9.70707e-05 0)
(0.999888 -0.00240623 0)
(0.995887 -0.000978101 0)
(0.996212 0.00293962 0)
(1.00366 0.00577887 0)
(1.00661 -0.00407035 0)
(1.00251 -0.00704627 0)
(0.997973 -0.0113818 0)
(0.991898 -0.0090106 0)
(0.988406 -0.00218803 0)
(0.989491 -0.000643161 0)
(0.990599 0.004374 0)
(0.99542 0.00641327 0)
(0.998683 0.00360363 0)
(0.998659 0.00379382 0)
(0.999762 0.00263601 0)
(1.00128 0.000128104 0)
(0.999664 0.000152939 0)
(0.997856 0.000922344 0)
(0.997168 0.000711734 0)
(1.00066 -6.46346e-05 0)
(0.999885 -0.00234945 0)
(0.996074 -0.000841765 0)
(0.996462 0.00268283 0)
(1.0034 0.0052936 0)
(1.00613 -0.00379902 0)
(1.00225 -0.00690139 0)
(0.997955 -0.0105528 0)
(0.992457 -0.00865746 0)
(0.988946 -0.00220985 0)
(0.989955 -0.0005273 0)
(0.991122 0.00378772 0)
(0.995413 0.00600394 0)
(0.998523 0.00352782 0)
(0.998621 0.00344389 0)
(0.999474 0.00271751 0)
(1.00107 0.000476782 0)
(0.999813 0.000216784 0)
(0.998012 0.00100512 0)
(0.997221 0.00104605 0)
(1.0006 -2.9041e-05 0)
(0.999887 -0.0022955 0)
(0.99626 -0.000712698 0)
(0.996701 0.00244158 0)
(1.00316 0.0048056 0)
(1.00566 -0.00352924 0)
(1.002 -0.00673712 0)
(0.997946 -0.0097871 0)
(0.992993 -0.00826495 0)
(0.989497 -0.00224876 0)
(0.990403 -0.000413259 0)
(0.991631 0.00326797 0)
(0.995443 0.005575 0)
(0.99836 0.00346933 0)
(0.998594 0.00315043 0)
(0.99924 0.00273211 0)
(1.00085 0.000799737 0)
(0.99993 0.000322653 0)
(0.998202 0.00103587 0)
(0.997296 0.00128123 0)
(1.00055 6.38855e-06 0)
(0.999893 -0.00223947 0)
(0.996444 -0.00058731 0)
(0.996928 0.00221102 0)
(1.00293 0.00431715 0)
(1.0052 -0.00325968 0)
(1.00176 -0.00655326 0)
(0.997948 -0.00907819 0)
(0.993507 -0.00784509 0)
(0.990055 -0.00229365 0)
(0.990838 -0.00031428 0)
(0.992123 0.00281167 0)
(0.995513 0.00513 0)
(0.998201 0.00341613 0)
(0.99857 0.00290857 0)
(0.999058 0.00269475 0)
(1.00063 0.00108372 0)
(1.00001 0.000469305 0)
(0.998409 0.00106088 0)
(0.997402 0.00142533 0)
(1.00049 4.2792e-05 0)
(0.999904 -0.00218685 0)
(0.996627 -0.000468204 0)
(0.997141 0.00200275 0)
(1.00271 0.00382458 0)
(1.00475 -0.00299347 0)
(1.00153 -0.0063383 0)
(0.997961 -0.00842504 0)
(0.993997 -0.00740001 0)
(0.990618 -0.00233468 0)
(0.991263 -0.000239009 0)
(0.992596 0.00241209 0)
(0.99562 0.00467616 0)
(0.998054 0.00336167 0)
(0.998546 0.00271336 0)
(0.998922 0.00262379 0)
(1.00043 0.00132105 0)
(1.00007 0.00062771 0)
(0.998616 0.00110089 0)
(0.99754 0.00150101 0)
(1.00044 8.11746e-05 0)
(0.99992 -0.00213942 0)
(0.996811 -0.000358933 0)
(0.997339 0.00181975 0)
(1.00251 0.00333381 0)
(1.00432 -0.00274644 0)
(1.00131 -0.00608707 0)
(0.997987 -0.00783615 0)
(0.994466 -0.00694643 0)
(0.991182 -0.00235934 0)
(0.99168 -0.000177324 0)
(0.99305 0.00206911 0)
(0.995765 0.004224 0)
(0.997929 0.0032922 0)
(0.998519 0.00256675 0)
(0.998827 0.00252638 0)
(1.00024 0.00151154 0)
(1.00009 0.000782493 0)
(0.998813 0.00115149 0)
(0.997698 0.0015456 0)
(1.00039 0.000117493 0)
(0.99994 -0.0020863 0)
(0.996997 -0.000267197 0)
(0.997521 0.0016619 0)
(1.00232 0.00286029 0)
(1.0039 -0.0025227 0)
(1.0011 -0.00580556 0)
(0.998022 -0.00729843 0)
(0.994915 -0.00650423 0)
(0.991745 -0.00236186 0)
(0.992092 -0.000120224 0)
(0.993481 0.00179197 0)
(0.995943 0.00377784 0)
(0.997831 0.00320296 0)
(0.998489 0.00246507 0)
(0.998767 0.00240871 0)
(1.00008 0.00165122 0)
(1.0001 0.000937087 0)
(0.999 0.00120147 0)
(0.997873 0.00158963 0)
(1.00034 0.000150237 0)
(0.999964 -0.00202805 0)
(0.997184 -0.000189563 0)
(0.997687 0.00153941 0)
(1.00215 0.00239661 0)
(1.00351 -0.00232346 0)
(1.00089 -0.00548032 0)
(0.998068 -0.00680571 0)
(0.995347 -0.00607443 0)
(0.992308 -0.00233733 0)
(0.992502 -7.63144e-05 0)
(0.993887 0.00155843 0)
(0.996148 0.00334107 0)
(0.99777 0.00307803 0)
(0.998458 0.00239434 0)
(0.998732 0.00229318 0)
(0.999957 0.00174008 0)
(1.0001 0.00108089 0)
(0.999178 0.0012492 0)
(0.998053 0.00162638 0)
(1.00029 0.000181509 0)
(0.999991 -0.00196464 0)
(0.997375 -0.00014278 0)
(0.997838 0.00145671 0)
(1.00199 0.00196222 0)
(1.00314 -0.00217789 0)
(1.0007 -0.00511647 0)
(0.998121 -0.00633847 0)
(0.995767 -0.00566898 0)
(0.992868 -0.0022864 0)
(0.992908 -3.07328e-05 0)
(0.994267 0.00136633 0)
(0.996372 0.00293037 0)
(0.997747 0.00291318 0)
(0.998431 0.00233667 0)
(0.998718 0.00219156 0)
(0.999864 0.00178289 0)
(1.0001 0.00120613 0)
(0.999347 0.00129438 0)
(0.99824 0.00165381 0)
(1.00025 0.000205998 0)
(1.00002 -0.00188456 0)
(0.997573 -0.000125106 0)
(0.997977 0.00141053 0)
(1.00183 0.00154895 0)
(1.00281 -0.00208149 0)
(1.00053 -0.00473375 0)
(0.998181 -0.00588667 0)
(0.996176 -0.00528971 0)
(0.993427 -0.00222383 0)
(0.993312 2.01241e-05 0)
(0.994619 0.00121933 0)
(0.996607 0.00255116 0)
(0.997765 0.0027202 0)
(0.998416 0.00228126 0)
(0.998717 0.00210904 0)
(0.9998 0.00179606 0)
(1.00011 0.00129969 0)
(0.999508 0.00133315 0)
(0.99843 0.00166647 0)
(1.0002 0.000222641 0)
(1.00005 -0.00178362 0)
(0.997775 -0.000146857 0)
(0.998094 0.00138869 0)
(1.00168 0.00118636 0)
(1.00252 -0.00202821 0)
(1.00037 -0.00435189 0)
(0.998236 -0.00541448 0)
(0.996568 -0.00492927 0)
(0.993988 -0.00216678 0)
(0.993724 5.64855e-05 0)
(0.994953 0.00111777 0)
(0.996854 0.00220766 0)
(0.997829 0.00249106 0)
(0.99842 0.00221034 0)
(0.998726 0.00202904 0)
(0.999756 0.00178452 0)
(1.00011 0.00136652 0)
(0.999658 0.00136724 0)
(0.998619 0.00167853 0)
(1.00017 0.000232709 0)
(1.00008 -0.00166495 0)
(0.99798 -0.000205518 0)
(0.998209 0.00138049 0)
(1.00153 0.000910235 0)
(1.00225 -0.00200349 0)
(1.00024 -0.00397094 0)
(0.998294 -0.00491953 0)
(0.99694 -0.00458689 0)
(0.994547 -0.00213228 0)
(0.994144 6.27145e-05 0)
(0.995263 0.00104133 0)
(0.997094 0.00191038 0)
(0.99793 0.00225237 0)
(0.998451 0.00212704 0)
(0.99875 0.00196018 0)
(0.999742 0.00175834 0)
(1.00013 0.00141657 0)
(0.999816 0.00138614 0)
(0.998821 0.00168101 0)
(1.00013 0.000233678 0)
(1.0001 -0.0015274 0)
(0.998191 -0.000282166 0)
(0.998318 0.00136363 0)
(1.00137 0.000723175 0)
(1.00202 -0.00198302 0)
(1.00014 -0.00362705 0)
(0.998353 -0.00443709 0)
(0.997289 -0.0042355 0)
(0.995099 -0.00210561 0)
(0.994573 5.07906e-05 0)
(0.995556 0.00097892 0)
(0.997326 0.00166345 0)
(0.998063 0.00201169 0)
(0.998511 0.00201713 0)
(0.998788 0.00189319 0)
(0.999748 0.00172455 0)
(1.00017 0.0014393 0)
(0.999974 0.00138778 0)
(0.99904 0.00165649 0)
(1.0001 0.000226373 0)
(1.00012 -0.00137201 0)
(0.998401 -0.000374852 0)
(0.99843 0.00131706 0)
(1.00121 0.000620397 0)
(1.00181 -0.00196759 0)
(1.00007 -0.00334526 0)
(0.99842 -0.00396575 0)
(0.99761 -0.00386234 0)
(0.995639 -0.00207206 0)
(0.995015 8.3984e-06 0)
(0.995839 0.00093245 0)
(0.997546 0.00146171 0)
(0.998219 0.00177937 0)
(0.998605 0.00189477 0)
(0.998848 0.00182474 0)
(0.999774 0.00168296 0)
(1.00021 0.0014414 0)
(1.00013 0.0013882 0)
(0.999277 0.00160607 0)
(1.00007 0.000211425 0)
(1.00013 -0.00120682 0)
(0.998608 -0.000467653 0)
(0.998548 0.00123955 0)
(1.00104 0.000569239 0)
(1.00162 -0.00192852 0)
(1.00003 -0.00309482 0)
(0.998498 -0.00352254 0)
(0.997902 -0.00346792 0)
(0.996156 -0.00202091 0)
(0.99547 -6.03865e-05 0)
(0.996122 0.000880647 0)
(0.997754 0.001302 0)
(0.998397 0.00157174 0)
(0.998733 0.00176606 0)
(0.998927 0.00175731 0)
(0.999815 0.00163714 0)
(1.00027 0.00143345 0)
(1.00029 0.00138222 0)
(0.999525 0.00153247 0)
(1.00005 0.000191778 0)
(1.00013 -0.00103845 0)
(0.998805 -0.000550136 0)
(0.998673 0.00110707 0)
(1.00088 0.000565137 0)
(1.00143 -0.00184162 0)
(1.00002 -0.00287037 0)
(0.998594 -0.00312303 0)
(0.998166 -0.00306328 0)
(0.996644 -0.0019282 0)
(0.995933 -0.000137918 0)
(0.99641 0.000806901 0)
(0.997953 0.00117589 0)
(0.998584 0.0013836 0)
(0.99889 0.00162368 0)
(0.999031 0.00168386 0)
(0.999874 0.00159273 0)
(1.00035 0.00140765 0)
(1.00043 0.00136958 0)
(0.999777 0.00146414 0)
(1.00003 0.00016894 0)
(1.00012 -0.00087949 0)
(0.998987 -0.000602299 0)
(0.99881 0.000924207 0)
(1.00074 0.00058646 0)
(1.00125 -0.00169136 0)
(1.00003 -0.00266464 0)
(0.998709 -0.00277669 0)
(0.99841 -0.00268142 0)
(0.997094 -0.00179087 0)
(0.99639 -0.000216756 0)
(0.996708 0.000717965 0)
(0.998149 0.00107043 0)
(0.998777 0.00122261 0)
(0.999075 0.00147943 0)
(0.99916 0.00159857 0)
(0.999944 0.00154617 0)
(1.00043 0.0013666 0)
(1.00058 0.00134943 0)
(1.00002 0.00141067 0)
(1.00001 0.000146064 0)
(1.00011 -0.000739379 0)
(0.99915 -0.000625982 0)
(0.998955 0.000721308 0)
(1.00061 0.000597883 0)
(1.00107 -0.00148199 0)
(1.00005 -0.00244939 0)
(0.998841 -0.00248266 0)
(0.998642 -0.00233612 0)
(0.997508 -0.00162391 0)
(0.996837 -0.000272545 0)
(0.997016 0.000628851 0)
(0.998343 0.00096706 0)
(0.99897 0.00108217 0)
(0.999277 0.00133385 0)
(0.999315 0.00149732 0)
(1.00003 0.00149758 0)
(1.00053 0.00132681 0)
(1.00073 0.00130942 0)
(1.00024 0.00136646 0)
(0.99999 0.000128026 0)
(1.00009 -0.000622472 0)
(0.999293 -0.000618914 0)
(0.999108 0.000513454 0)
(1.00051 0.000585988 0)
(1.0009 -0.00123936 0)
(1.00007 -0.00220831 0)
(0.998984 -0.00223727 0)
(0.998866 -0.00203217 0)
(0.997886 -0.001448 0)
(0.997262 -0.000288279 0)
(0.997326 0.000544189 0)
(0.998539 0.000872087 0)
(0.999165 0.000954618 0)
(0.999494 0.00119602 0)
(0.999497 0.00139043 0)
(1.00013 0.00143959 0)
(1.00062 0.00129294 0)
(1.00089 0.00124583 0)
(1.00045 0.00131789 0)
(0.999975 0.00011411 0)
(1.00008 -0.000526623 0)
(0.999415 -0.00056478 0)
(0.999261 0.000314198 0)
(1.00044 0.000527441 0)
(1.00075 -0.000993322 0)
(1.00008 -0.00193563 0)
(0.999131 -0.00201512 0)
(0.999089 -0.00178516 0)
(0.99824 -0.00128103 0)
(0.997667 -0.000273113 0)
(0.997632 0.000474256 0)
(0.998732 0.000793023 0)
(0.999355 0.000846311 0)
(0.999721 0.00106105 0)
(0.999698 0.00128029 0)
(1.00026 0.0013733 0)
(1.00071 0.00126335 0)
(1.00104 0.00118462 0)
(1.00066 0.00125707 0)
(0.999961 0.000107222 0)
(1.00006 -0.000449594 0)
(0.999516 -0.00048282 0)
(0.999406 0.000148185 0)
(1.00041 0.0004309 0)
(1.00062 -0.000771624 0)
(1.00008 -0.00163737 0)
(0.99927 -0.00179016 0)
(0.999306 -0.00158722 0)
(0.998575 -0.0011305 0)
(0.998049 -0.000244425 0)
(0.997931 0.000427353 0)
(0.998923 0.000722384 0)
(0.999538 0.000759817 0)
(0.999951 0.00093144 0)
(0.999922 0.00115804 0)
(1.0004 0.0012919 0)
(1.00081 0.00122528 0)
(1.00118 0.00113481 0)
(1.00086 0.00118324 0)
(0.999948 0.000107842 0)
(1.00005 -0.000388785 0)
(0.999602 -0.000391111 0)
(0.999538 3.05951e-05 0)
(1.00041 0.00031076 0)
(1.00051 -0.00058849 0)
(1.00008 -0.00133413 0)
(0.999392 -0.00156012 0)
(0.999515 -0.00141165 0)
(0.998897 -0.00102094 0)
(0.998416 -0.000210015 0)
(0.998221 0.00040225 0)
(0.999108 0.000674641 0)
(0.99971 0.000688486 0)
(1.00017 0.00082095 0)
(1.00016 0.00102771 0)
(1.00058 0.00119101 0)
(1.00091 0.00117624 0)
(1.00131 0.00109093 0)
(1.00105 0.00110525 0)
(0.999937 0.000114717 0)
(1.00005 -0.000341634 0)
(0.999676 -0.000293494 0)
(0.999651 -3.53571e-05 0)
(1.00043 0.000180681 0)
(1.00045 -0.000459612 0)
(1.00008 -0.00104574 0)
(0.999495 -0.00131266 0)
(0.999703 -0.00123882 0)
(0.999204 -0.000941526 0)
(0.998775 -0.0001924 0)
(0.998505 0.000385533 0)
(0.999285 0.000645878 0)
(0.999868 0.000632615 0)
(1.00038 0.000719627 0)
(1.0004 0.00090152 0)
(1.00077 0.00107533 0)
(1.00104 0.00110881 0)
(1.00143 0.00104296 0)
(1.00123 0.00102829 0)
(0.999928 0.000127758 0)
(1.00005 -0.000302375 0)
(0.999743 -0.000203073 0)
(0.999746 -4.27781e-05 0)
(1.00046 6.7163e-05 0)
(1.00043 -0.000393872 0)
(1.00009 -0.000791019 0)
(0.999582 -0.00105698 0)
(0.999866 -0.00106268 0)
(0.999491 -0.000860289 0)
(0.999129 -0.000199507 0)
(0.998791 0.000367637 0)
(0.999457 0.000626577 0)
(1.00001 0.000605961 0)
(1.00058 0.000640733 0)
(1.00063 0.000788124 0)
(1.00098 0.000950853 0)
(1.00118 0.00101732 0)
(1.00155 0.000988282 0)
(1.0014 0.000955886 0)
(0.99992 0.000142348 0)
(1.00005 -0.000258254 0)
(0.999811 -0.000128767 0)
(0.999822 -1.24792e-05 0)
(1.0005 -1.33173e-05 0)
(1.00044 -0.000371809 0)
(1.00012 -0.000580972 0)
(0.999658 -0.000810687 0)
(1 -0.000874996 0)
(0.999749 -0.000776681 0)
(0.999472 -0.000222835 0)
(0.999083 0.000330843 0)
(0.999632 0.000608224 0)
(1.00013 0.000595476 0)
(1.00074 0.000589361 0)
(1.00085 0.000683667 0)
(1.00119 0.00082951 0)
(1.00135 0.000907851 0)
(1.00168 0.00091713 0)
(1.00155 0.00088691 0)
(0.999914 0.000156973 0)
(1.00006 -0.00020687 0)
(0.999878 -7.1849e-05 0)
(0.999887 3.5173e-05 0)
(1.00053 -4.28898e-05 0)
(1.00048 -0.000370491 0)
(1.00018 -0.000427334 0)
(0.999732 -0.000583529 0)
(1.00011 -0.000672926 0)
(0.999972 -0.000680635 0)
(0.999799 -0.000241289 0)
(0.999385 0.000272923 0)
(0.999818 0.000582667 0)
(1.00025 0.000584348 0)
(1.00089 0.000557487 0)
(1.00104 0.000595424 0)
(1.0014 0.000715837 0)
(1.00153 0.000792686 0)
(1.00182 0.000823026 0)
(1.00169 0.000814223 0)
(0.99991 0.000170385 0)
(1.00007 -0.000151647 0)
(0.999947 -2.49268e-05 0)
(0.999945 9.04205e-05 0)
(1.00055 -1.61365e-05 0)
(1.00054 -0.000367332 0)
(1.00028 -0.000329193 0)
(0.999817 -0.000388366 0)
(1.0002 -0.000474204 0)
(1.00016 -0.000559398 0)
(1.0001 -0.000249585 0)
(0.999691 0.000204041 0)
(1.00002 0.000533523 0)
(1.00037 0.000569652 0)
(1.00101 0.000535536 0)
(1.00121 0.00053448 0)
(1.00159 0.000610833 0)
(1.0017 0.000681051 0)
(1.00197 0.00071488 0)
(1.00184 0.000722642 0)
(0.999908 0.000180692 0)
(1.00008 -9.0223e-05 0)
(1.00002 1.39783e-05 0)
(1 0.000139381 0)
(1.00057 4.56924e-05 0)
(1.00059 -0.00033662 0)
(1.0004 -0.000270197 0)
(0.99992 -0.000232463 0)
(1.00029 -0.000293369 0)
(1.00031 -0.000419703 0)
(1.00036 -0.000235337 0)
(0.999991 0.000136269 0)
(1.00024 0.000463149 0)
(1.0005 0.000542284 0)
(1.00112 0.000513692 0)
(1.00136 0.000488295 0)
(1.00177 0.000521389 0)
(1.00188 0.000571858 0)