/*--------------------------------*- C++ -*----------------------------------*\
| =========                 |                                                 |
| \\      /  F ield         | OpenFOAM: The Open Source CFD Toolbox           |
|  \\    /   O peration     | Version:  3.0.1                                 |
|   \\  /    A nd           | Web:      www.OpenFOAM.org                      |
|    \\/     M anipulation  |                                                 |
\*---------------------------------------------------------------------------*/
FoamFile
{
    version     2.0;
    format      ascii;
    class       volScalarField;
    location    "4.4";
    object      p;
}
// * * * * * * * * * * * * * * * * * * * * * * * * * * * * * * * * * * * * * //

dimensions      [0 2 -2 0 0 0 0];

internalField   nonuniform List<scalar> 
9600
(
-6.21222e-11
-2.41754e-05
0.000574094
0.000250943
0.0018212
0.00047539
0.00209764
-0.000153257
0.00104651
0.00229838
0.00309444
0.00417037
0.00735465
0.00871632
0.0139971
0.0130628
0.0162907
0.0158619
0.020073
0.0245997
-4.41826e-06
-1.58113e-05
0.000576132
0.000249758
0.00182334
0.000461555
0.00209581
-0.000154057
0.00104721
0.00231664
0.00309955
0.00416794
0.00736933
0.00866701
0.0140026
0.012949
0.0162916
0.0157381
0.0201318
0.0240679
-9.39142e-06
-7.63126e-06
0.000577889
0.000247509
0.00182015
0.000444758
0.00208998
-0.000153833
0.00105314
0.0023335
0.00310244
0.00416774
0.00737926
0.00860702
0.0139893
0.0128227
0.0162728
0.0156147
0.0201439
0.0233855
-1.43932e-05
4.03944e-07
0.000579316
0.000243524
0.00181584
0.000426792
0.00207891
-0.000149911
0.00106251
0.00234673
0.00310573
0.00416702
0.00738239
0.00853617
0.0139549
0.0126812
0.0162344
0.0155192
0.0200624
0.0228263
-1.96872e-05
8.74088e-06
0.000580771
0.000238395
0.00181415
0.000407164
0.00206593
-0.000140406
0.00107346
0.00235826
0.00310912
0.00416599
0.00738247
0.00845667
0.0139183
0.0125266
0.0161981
0.0154341
0.0199416
0.0223428
-2.53192e-05
1.7475e-05
0.000582554
0.000233252
0.00181519
0.000385277
0.00205345
-0.000123916
0.00108501
0.0023693
0.0031121
0.00416663
0.00738133
0.00837124
0.013882
0.0123808
0.0161554
0.0153631
0.0197871
0.0218925
-3.12649e-05
2.65829e-05
0.000584949
0.000228943
0.00181874
0.000360936
0.00204314
-9.95634e-05
0.00109679
0.0023806
0.00311532
0.00416991
0.00738013
0.00827793
0.0138437
0.0122434
0.0160922
0.0153117
0.0195786
0.0214609
-3.75127e-05
3.60507e-05
0.000588161
0.000225632
0.00182518
0.00033469
0.00203607
-6.68928e-05
0.00110862
0.00239282
0.00311936
0.00417669
0.00737942
0.00817622
0.0138017
0.0121174
0.0160047
0.0152767
0.0193118
0.0210479
-4.40707e-05
4.58716e-05
0.000592256
0.000222798
0.00183475
0.000307835
0.00203263
-2.60405e-05
0.00112021
0.00240646
0.00312447
0.00418778
0.00737941
0.00806759
0.0137531
0.0120063
0.0158893
0.015255
0.0189899
0.0206485
-5.0955e-05
5.60344e-05
0.000597126
0.000219512
0.00184726
0.000282009
0.00203258
2.20692e-05
0.00113124
0.00242184
0.00313064
0.00420419
0.00737984
0.00795451
0.0136945
0.0119117
0.0157418
0.0152451
0.0186173
0.0202542
-5.81773e-05
6.6542e-05
0.000602542
0.000215012
0.00186222
0.000258535
0.00203518
7.57935e-05
0.00114141
0.00243912
0.00313768
0.00422504
0.00737956
0.00784042
0.0136228
0.0118332
0.015559
0.0152343
0.0182001
0.0198551
-6.57455e-05
7.74211e-05
0.000608246
0.000209106
0.00187891
0.00023797
0.00203946
0.000133083
0.00115052
0.00245842
0.0031451
0.00425139
0.00737707
0.00772917
0.0135344
0.0117683
0.0153399
0.0152182
0.0177445
0.0194303
-7.36672e-05
8.87006e-05
0.000614037
0.000202162
0.00189655
0.000220096
0.00204438
0.000191917
0.0011584
0.00248005
0.00315214
0.00428313
0.00737105
0.00762411
0.0134259
0.0117145
0.0150845
0.0151917
0.0172604
0.0189773
-8.19514e-05
0.00010039
0.00061981
0.000194834
0.0019144
0.000204274
0.00204903
0.000250804
0.00116482
0.00250425
0.00315803
0.00431959
0.00736024
0.00752757
0.0132949
0.0116692
0.0147943
0.0151479
0.0167582
0.01849
-9.06026e-05
0.000112491
0.000625545
0.000187704
0.00193173
0.0001899
0.00205267
0.000309016
0.00116953
0.00253121
0.00316196
0.00435982
0.0073435
0.00744065
0.0131398
0.0116292
0.014473
0.015079
0.0162476
0.0179661
-9.96179e-05
0.000125001
0.000631282
0.000181091
0.00194788
0.000176644
0.00205473
0.000366463
0.00117227
0.0025612
0.00316327
0.00440261
0.00732014
0.00736317
0.01296
0.011591
0.0141257
0.0149787
0.0157379
0.0174072
-0.000108987
0.000137882
0.000637092
0.000175064
0.00196238
0.000164445
0.00205473
0.000423412
0.00117258
0.00259447
0.00316158
0.00444662
0.00729017
0.00729361
0.0127559
0.0115513
0.0137569
0.0148408
0.0152379
0.0168167
-0.000118688
0.00015107
0.000643053
0.000169524
0.00197488
0.000153486
0.00205228
0.000480239
0.00116992
0.00263121
0.00315667
0.00449052
0.00725417
0.00722971
0.0125294
0.0115066
0.0133709
0.0146608
0.0147544
0.0161992
-0.000128693
0.000164468
0.000649266
0.000164269
0.00198514
0.000144118
0.00204696
0.000537408
0.00116367
0.00267139
0.00314864
0.00453269
0.00721307
0.00716903
0.0122824
0.0114531
0.0129716
0.0144377
0.014292
0.0155589
-0.000138954
0.000177953
0.000655824
0.00015907
0.00199304
0.000136808
0.00203832
0.00059537
0.00115326
0.00271479
0.00313789
0.00457119
0.00716818
0.00710817
0.0120171
0.0113886
0.012563
0.0141716
0.0138526
0.0149003
-0.000149406
0.000191377
0.000662792
0.000153726
0.00199846
0.000132034
0.00202585
0.000654516
0.00113821
0.00276113
0.00312503
0.00460398
0.00712068
0.00704382
0.0117354
0.0113117
0.0121483
0.0138624
0.0134374
0.0142293
-0.000159968
0.000204559
0.000670235
0.000148102
0.00200123
0.000130174
0.00200902
0.000715321
0.00111806
0.00280987
0.00311117
0.00462837
0.00707172
0.00697401
0.0114387
0.0112209
0.0117297
0.0135109
0.0130463
0.0135527
-0.000170541
0.000217289
0.000678226
0.0001421
0.00200112
0.000131652
0.00198729
0.000778091
0.00109251
0.00286009
0.00309788
0.00464117
0.00702289
0.00689771
0.0111269
0.0111152
0.0113084
0.0131168
0.0126778
0.0128804
-0.000181015
0.00022934
0.000686834
0.000135664
0.00199789
0.000136972
0.00196011
0.000842871
0.00106158
0.00291055
0.00308698
0.00463948
0.0069752
0.0068146
0.0107991
0.0109948
0.0108863
0.0126778
0.01233
0.0122255
-0.000191251
0.000240449
0.000696088
0.000128832
0.00199121
0.000146583
0.00192696
0.000909657
0.00102546
0.00295946
0.00308072
0.00462088
0.00692826
0.00672579
0.0104539
0.0108585
0.0104683
0.0121932
0.0119971
0.0116026
-0.00020109
0.000250332
0.000705984
0.000121713
0.00198063
0.000160883
0.00188743
0.000978256
0.000984757
0.00300441
0.00308137
0.00458357
0.00688034
0.00663411
0.0100899
0.0107035
0.0100612
0.0116644
0.0116679
0.0110255
-0.000210364
0.000258719
0.000716476
0.000114337
0.00196568
0.000180223
0.0018412
0.00104825
0.000940379
0.003043
0.00309112
0.00452649
0.00682822
0.00654289
0.00970631
0.0105251
0.0096725
0.0110952
0.011327
0.0105062
-0.00021889
0.000265362
0.000727428
0.000106755
0.00194588
0.000204955
0.00178773
0.00111903
0.000893484
0.00307262
0.00311187
0.00444956
0.00676796
0.00645565
0.0093029
0.0103174
0.00930927
0.0104932
0.0109581
0.0100509
-0.000226492
0.000270014
0.000738666
9.82968e-05
0.00192065
0.000235368
0.00172724
0.00118969
0.00084591
0.00308973
0.00314454
0.00435426
0.00669506
0.00637603
0.00888189
0.0100726
0.00897537
0.0098713
0.0105448
0.00965457
-0.00023301
0.000272446
0.000749996
8.96016e-05
0.00188939
0.000271502
0.00166099
0.00125892
0.000799724
0.00309107
0.00318909
0.00424372
0.00660362
0.00630594
0.00844842
0.00978307
0.00866964
0.00924686
0.0100759
0.00930164
-0.000238263
0.000272458
0.000761118
8.46591e-05
0.00185155
0.000313294
0.00158947
0.00132499
0.000756973
0.00307403
0.00324443
0.00412208
0.00648719
0.00624492
0.00801032
0.00944395
0.00838639
0.00863735
0.00954863
0.00896871
-0.000242071
0.000269973
0.000771568
8.17178e-05
0.00180681
0.000360543
0.00151333
0.00138594
0.000719957
0.00303644
0.00330776
0.00399421
0.00634047
0.00619101
0.0075765
0.00905244
0.00811604
0.00805913
0.0089678
0.00862694
-0.000244319
0.000265
0.000780908
8.06854e-05
0.0017549
0.000412701
0.00143368
0.00143963
0.000690958
0.00297722
0.00337465
0.00386565
0.00615988
0.00613866
0.00715643
0.00861061
0.00784393
0.00752382
0.00834831
0.00825074
-0.000244898
0.00025751
0.000788749
8.17826e-05
0.00169554
0.000468878
0.00135217
0.0014838
0.000671428
0.00289629
0.00343986
0.003742
0.00594374
0.00607868
0.00676014
0.00812683
0.00755347
0.00703527
0.00771129
0.00782271
-0.000243691
0.000247532
0.000794549
8.52848e-05
0.00162863
0.000527959
0.00127076
0.00151608
0.000662042
0.0027947
0.00349738
0.0036276
0.0056928
0.00600114
0.00639448
0.00761228
0.00723118
0.00659123
0.0070791
0.00733629
-0.000240656
0.000235175
0.000797775
9.14275e-05
0.0015543
0.000588654
0.00119148
0.00153435
0.000662692
0.00267483
0.00354044
0.00352545
0.00541099
0.00589537
0.00606227
0.00708055
0.00686778
0.00618229
0.00647193
0.00679936
-0.000235845
0.000220569
0.000797964
0.00010042
0.00147285
0.000649461
0.00111644
0.00153711
0.000672467
0.0025398
0.00356245
0.00343725
0.00510448
0.00575176
0.00576227
0.00654633
0.00646016
0.00579143
0.00590179
0.00623078
-0.00022927
0.000203765
0.000794583
0.000112666
0.00138496
0.000710998
0.00104763
0.00152343
0.000689473
0.0023933
0.00355761
0.00336233
0.00478092
0.00556353
0.00548817
0.0060231
0.00601181
0.00540159
0.00537127
0.00565437
-0.000220846
0.000184809
0.000787183
0.000128568
0.00129142
0.000765148
0.000986755
0.00149308
0.000710214
0.00223955
0.0035217
0.00329736
0.00444912
0.00532693
0.00522982
0.00552245
0.00553132
0.00500055
0.00487469
0.00509028
-0.000210582
0.000163827
0.000775208
0.0001484
0.00119326
0.000811088
0.000935235
0.00144689
0.000730756
0.00208208
0.0034521
0.0032373
0.00411746
0.00504246
0.00497528
0.0050516
0.00503081
0.00458156
0.0043995
0.00454771
-0.00019863
0.000140997
0.000758188
0.000172401
0.00109194
0.000846287
0.000893575
0.0013871
0.000747208
0.00192323
0.00334754
0.00317595
0.00379399
0.00471515
0.00471202
0.00461238
0.00452243
0.00414174
0.00393433
0.00402739
-0.000185162
0.000116735
0.000735339
0.000200143
0.00098967
0.000867861
0.000861521
0.00131714
0.000755494
0.00176415
0.00320879
0.0031068
0.00348522
0.004353
0.00442935
0.00420298
0.00401656
0.00368119
0.00347297
0.00352536
-0.000170521
9.17957e-05
0.000705754
0.000231415
0.000889798
0.000873475
0.00083656
0.00124021
0.000752878
0.00160531
0.00303755
0.00302328
0.00319599
0.00396633
0.00411947
0.00381746
0.00352293
0.00320349
0.00300989
0.00303645
-0.000155509
6.74095e-05
0.000668758
0.000263487
0.000795835
0.000862258
0.000813358
0.00115814
0.000737782
0.00144709
0.0028365
0.00292118
0.00292803
0.00356676
0.00377831
0.00344594
0.00304864
0.00271481
0.00253916
0.00255659
-0.000140813
4.49217e-05
0.000623998
0.000293055
0.000709969
0.00083428
0.000788471
0.00107335
0.000710006
0.00128978
0.00260983
0.00279141
0.00267812
0.00316519
0.0034085
0.00307783
0.00259527
0.00222386
0.00205654
0.00207942
-0.00012582
2.49398e-05
0.000571619
0.000315572
0.000633225
0.000793598
0.000758598
0.000985529
0.000670306
0.00113329
0.00236238
0.00263092
0.00244083
0.00277053
0.00301558
0.00270466
0.00215999
0.00173945
0.00156385
0.00159673
-0.000114174
7.72465e-06
0.000513721
0.000326958
0.000565502
0.000744811
0.000720412
0.000893197
0.000618304
0.000978048
0.00209968
0.00243904
0.00220968
0.00238682
0.00260474
0.00232182
0.00173873
0.00126829
0.00107063
0.00110336
-0.000105083
-6.61524e-06
0.000452268
0.000325078
0.000505398
0.000691248
0.000672707
0.00079328
0.000552935
0.000825359
0.00182746
0.00221663
0.00197677
0.0020154
0.0021817
0.00192782
0.00132878
0.000810116
0.000583776
0.000604223
-9.88326e-05
-1.85975e-05
0.000390377
0.000309121
0.000448085
0.000634144
0.00061584
0.000684879
0.000472793
0.000674911
0.00155222
0.00196624
0.00173484
0.00165664
0.00175211
0.00152198
0.000927319
0.000363415
0.000105739
0.000108939
-9.54994e-05
-2.92185e-05
0.00033103
0.000279162
0.000387265
0.000573437
0.000552618
0.000569842
0.000375984
0.000523902
0.00127926
0.00169314
0.00147937
0.00130734
0.0013218
0.00110309
0.000529347
-6.79261e-05
-0.000364014
-0.000378092
-9.48814e-05
-3.97665e-05
0.000274895
0.000237185
0.000318245
0.000507252
0.000485483
0.000450022
0.00026222
0.000368875
0.00101045
0.00140493
0.00120994
0.000963893
0.000895212
0.000672083
0.000129249
-0.000482493
-0.000824849
-0.000855675
-9.65767e-05
-5.13392e-05
0.000221879
0.000185835
0.0002378
0.000431175
0.000416067
0.000328405
0.000133402
0.000205484
0.000745248
0.0011074
0.00092783
0.000624318
0.000473357
0.00023374
-0.00027784
-0.000884965
-0.00127033
-0.00132487
-0.000100005
-6.51296e-05
0.00017096
0.000128751
0.000144698
0.000339975
0.000342502
0.000209862
-7.20539e-06
2.98536e-05
0.0004814
0.000804489
0.000635821
0.000288704
5.74948e-05
-0.000208817
-0.000693786
-0.00128088
-0.0016961
-0.00178528
-0.000104898
-8.24138e-05
0.000121306
6.901e-05
3.96636e-05
0.000230251
0.000263285
9.81774e-05
-0.000155981
-0.000160747
0.000213261
0.000498741
0.000337709
-4.27095e-05
-0.000348961
-0.000651962
-0.00111772
-0.00167685
-0.00210436
-0.00223189
-0.000111246
-0.000103584
6.87214e-05
7.64457e-06
-7.40326e-05
0.000100638
0.000173022
-7.27433e-06
-0.000305533
-0.000364392
-6.47312e-05
0.000188119
3.56448e-05
-0.000368264
-0.00074258
-0.00109086
-0.00154833
-0.0020785
-0.00250085
-0.00265948
-0.000119172
-0.000129197
1.12689e-05
-5.41822e-05
-0.000191019
-4.92982e-05
6.13326e-05
-0.000108832
-0.000449153
-0.000577704
-0.000354016
-0.000132236
-0.000270978
-0.000686544
-0.00112123
-0.00152072
-0.00198091
-0.00248753
-0.00289427
-0.00306787
-0.000129084
-0.000159112
-5.45061e-05
-0.000117389
-0.000305399
-0.000216807
-7.3535e-05
-0.000212538
-0.00058549
-0.000797163
-0.00065307
-0.000465492
-0.000585981
-0.00099896
-0.0014816
-0.00193568
-0.0024094
-0.00290134
-0.00329183
-0.00346314
-0.000142271
-0.00019269
-0.000128913
-0.000185239
-0.000412637
-0.000394815
-0.00023613
-0.000327727
-0.000712723
-0.00100098
-0.000955163
-0.000811898
-0.000915079
-0.00131013
-0.00182271
-0.00233046
-0.00282907
-0.00331375
-0.00369371
-0.00385593
-0.000160678
-0.000230594
-0.000210042
-0.000260707
-0.000511489
-0.000574217
-0.000427488
-0.000463599
-0.000834509
-0.00119299
-0.00125213
-0.00116794
-0.00126069
-0.0016282
-0.00214992
-0.00270017
-0.00323288
-0.00371919
-0.00409464
-0.00425318
-0.000185356
-0.000272031
-0.0002972
-0.000347233
-0.000603904
-0.000746117
-0.000641567
-0.000628267
-0.000959672
-0.00137037
-0.0015365
-0.00152684
-0.00162167
-0.00195828
-0.00247093
-0.00304527
-0.00361371
-0.00411454
-0.00448875
-0.00465025
-0.00021721
-0.000317452
-0.000388727
-0.000446428
-0.000695193
-0.000905098
-0.000867413
-0.000824834
-0.00109977
-0.00153513
-0.00180126
-0.00187874
-0.0019931
-0.00230135
-0.00279333
-0.00337397
-0.00396813
-0.00449345
-0.00487181
-0.00503887
-0.000257147
-0.000367477
-0.000482485
-0.000558097
-0.000792324
-0.00105032
-0.00109322
-0.00105065
-0.00126404
-0.00169481
-0.00204371
-0.00221366
-0.00236614
-0.00265674
-0.00312144
-0.0036951
-0.00429864
-0.0048482
-0.00524164
-0.00541427
-0.000305654
-0.000423156
-0.000577219
-0.000680482
-0.000900695
-0.00118525
-0.00130944
-0.00129668
-0.00145699
-0.00185841
-0.00226597
-0.00252567
-0.00272937
-0.00301902
-0.00345667
-0.00401371
-0.00461347
-0.00517582
-0.00559281
-0.00577593
-0.000362838
-0.000485596
-0.000672661
-0.000810786
-0.00102291
-0.00131666
-0.00151143
-0.00155019
-0.00167885
-0.00203497
-0.00247198
-0.00281226
-0.00307448
-0.00337835
-0.00379741
-0.00433137
-0.00491958
-0.00548038
-0.00591833
-0.0061211
-0.000428711
-0.000555981
-0.000769344
-0.00094562
-0.00115892
-0.00145133
-0.00169944
-0.0017998
-0.00192329
-0.0022319
-0.00266882
-0.00307206
-0.00339706
-0.00372509
-0.00413607
-0.00464705
-0.00521923
-0.00577105
-0.00621731
-0.00644337
-0.000502982
-0.000634993
-0.000868625
-0.00108233
-0.00130705
-0.00159423
-0.00187719
-0.00203849
-0.0021786
-0.00244957
-0.00286709
-0.0033073
-0.00369143
-0.00405241
-0.00446355
-0.00495746
-0.00551131
-0.00605125
-0.00649517
-0.00673923
-0.000585376
-0.000723282
-0.00097206
-0.00121939
-0.0014642
-0.00174811
-0.00205014
-0.00226367
-0.00243414
-0.00268249
-0.00307246
-0.00352555
-0.00395412
-0.00435359
-0.00477296
-0.0052549
-0.0057917
-0.00631886
-0.00675642
-0.00700994
-0.000675303
-0.000819631
-0.00108171
-0.00135764
-0.0016271
-0.00191241
-0.00222344
-0.00247675
-0.00268304
-0.0029228
-0.00328345
-0.00373355
-0.00418749
-0.00462046
-0.00505615
-0.00553216
-0.0060548
-0.00656889
-0.0069997
-0.00725689
-0.000773208
-0.000924802
-0.00119781
-0.00149679
-0.00179321
-0.00208565
-0.00240032
-0.00268031
-0.00292084
-0.00316432
-0.00349788
-0.00393243
-0.00439571
-0.00484848
-0.00530162
-0.00577694
-0.00628894
-0.00679329
-0.00721843
-0.00747863
-0.000879215
-0.00103889
-0.00132096
-0.00163797
-0.00196053
-0.00226547
-0.00258302
-0.00287824
-0.00314493
-0.00339911
-0.00371265
-0.00412179
-0.00458115
-0.00504206
-0.00550767
-0.00598521
-0.00648507
-0.00697907
-0.00739972
-0.00766476
-0.000991908
-0.00115749
-0.00145204
-0.00178554
-0.00212957
-0.00244903
-0.00277102
-0.00307583
-0.00335888
-0.00362174
-0.00392115
-0.00429819
-0.0047335
-0.00518748
-0.00565586
-0.00613941
-0.00663518
-0.0071226
-0.0075454
-0.00782502
-0.00111278
-0.00128489
-0.00158898
-0.00193485
-0.00229848
-0.00263536
-0.00296307
-0.00327361
-0.00356895
-0.00383637
-0.00412499
-0.00447384
-0.00486725
-0.0052828
-0.00571937
-0.00618258
-0.00666917
-0.00715277
-0.00758412
-0.00787902
-0.00124149
-0.00142014
-0.00173118
-0.00208689
-0.00246869
-0.00282504
-0.00316045
-0.00347083
-0.00377336
-0.00404178
-0.00430904
-0.00462932
-0.00499313
-0.0053824
-0.00579612
-0.0062198
-0.00664982
-0.00708425
-0.00751498
-0.00784124
-0.00137507
-0.00155755
-0.00187851
-0.00224612
-0.00264192
-0.0030154
-0.00336508
-0.00368112
-0.00398534
-0.00425866
-0.00448658
-0.00470047
-0.00492734
-0.0051918
-0.00554647
-0.00599719
-0.00649508
-0.00702311
-0.0075029
-0.00790698
-0.00151371
-0.00170324
-0.00203351
-0.00240627
-0.00280706
-0.00318913
-0.00355907
-0.00390666
-0.00423821
-0.00456848
-0.00490242
-0.00517497
-0.00529246
-0.00530255
-0.00534682
-0.00545731
-0.0056554
-0.00584701
-0.00601538
-0.00619368
-0.00166135
-0.00185781
-0.00219451
-0.00256916
-0.00296599
-0.00335
-0.00371919
-0.0040668
-0.00439858
-0.004596
-0.00463309
-0.00465676
-0.00481202
-0.00508135
-0.00538243
-0.00569266
-0.00597958
-0.00622603
-0.00645091
-0.00671384
-0.00182185
-0.00201295
-0.00235469
-0.00274334
-0.00314724
-0.00352236
-0.00383933
-0.0040317
-0.00420223
-0.00443488
-0.00474892
-0.00507684
-0.00535408
-0.00556255
-0.00570885
-0.0057802
-0.00576882
-0.00575104
-0.00580125
-0.00598646
-0.00200917
-0.00217288
-0.00245828
-0.00277
-0.00309606
-0.00339875
-0.00368974
-0.00397065
-0.00425114
-0.00452043
-0.00471405
-0.00488949
-0.00508897
-0.00535394
-0.00569292
-0.00612748
-0.00665826
-0.00724189
-0.00783534
-0.00836872
-0.00223065
-0.00240861
-0.00259966
-0.00280271
-0.00306507
-0.00338215
-0.00374984
-0.00407255
-0.00434426
-0.00462149
-0.00488925
-0.00512569
-0.00537227
-0.00557279
-0.00572998
-0.00584214
-0.00591595
-0.00598326
-0.00608356
-0.00629261
-0.00237142
-0.00253886
-0.00269251
-0.00284851
-0.00307944
-0.00337175
-0.00368071
-0.00397538
-0.00429358
-0.00459737
-0.00486281
-0.00504759
-0.00522129
-0.00540784
-0.00558292
-0.00575153
-0.00594163
-0.00617534
-0.00647935
-0.00688172
0.0346531
0.0238243
0.0103704
0.00189911
-0.00125887
-0.00171269
-0.00146565
-0.00150278
-0.00224398
-0.00357413
-0.00488012
-0.00570405
-0.00623174
-0.00681897
-0.00752707
-0.00833255
-0.0092226
-0.0100323
-0.010658
-0.0112583
-0.01196
-0.0126802
-0.0133332
-0.0139484
-0.0146037
-0.0153174
-0.0160426
-0.0167673
-0.017512
-0.0182666
-0.0190359
-0.0198435
-0.0206597
-0.0214096
-0.0220729
-0.0227283
-0.0234443
-0.0241721
-0.02487
-0.025602
-0.0263805
-0.0271491
-0.0279099
-0.0287021
-0.0295058
-0.0303135
-0.0311379
-0.0319646
-0.0327834
-0.0336318
-0.0345197
-0.0354356
-0.0363533
-0.0372905
-0.0382515
-0.0391803
-0.0400738
-0.0410084
-0.0419941
-0.0429938
-0.0440223
-0.0450892
-0.046171
-0.0472409
-0.0483364
-0.0494577
-0.0505967
-0.0517448
-0.0529115
-0.0540883
-0.0553183
-0.0565948
-0.0578858
-0.0591806
-0.0604913
-0.0618185
-0.0631658
-0.0645505
-0.0659727
-0.0674129
-0.0688858
-0.0703734
-0.0719009
-0.0734409
-0.0750217
-0.0766215
-0.0782459
-0.079901
-0.0815608
-0.0832723
-0.0849878
-0.0867593
-0.0885164
-0.0903329
-0.0921404
-0.0939988
-0.0958348
-0.0976457
-0.0992247
-0.100616
0.0328365
0.0236476
0.0104695
0.00200828
-0.00119095
-0.00167367
-0.00143803
-0.00148147
-0.00222802
-0.00356288
-0.00487238
-0.00569812
-0.00622634
-0.00681371
-0.00752183
-0.00832741
-0.00921805
-0.0100285
-0.0106544
-0.0112547
-0.0119566
-0.0126772
-0.0133305
-0.0139459
-0.0146014
-0.0153153
-0.0160406
-0.0167655
-0.0175103
-0.0182651
-0.0190345
-0.0198422
-0.0206586
-0.0214087
-0.022072
-0.0227274
-0.0234434
-0.0241713
-0.0248693
-0.0256013
-0.0263799
-0.0271485
-0.0279094
-0.0287015
-0.0295053
-0.030313
-0.0311374
-0.0319642
-0.032783
-0.0336313
-0.0345192
-0.0354352
-0.0363529
-0.0372901
-0.0382511
-0.03918
-0.0400734
-0.041008
-0.0419937
-0.0429935
-0.044022
-0.0450889
-0.0461707
-0.0472406
-0.0483361
-0.0494575
-0.0505964
-0.0517446
-0.0529113
-0.0540881
-0.0553181
-0.0565946
-0.0578856
-0.0591804
-0.0604911
-0.0618184
-0.0631656
-0.0645503
-0.0659726
-0.0674128
-0.0688857
-0.0703732
-0.0719007
-0.0734408
-0.0750216
-0.0766214
-0.0782458
-0.0799009
-0.0815607
-0.0832722
-0.0849877
-0.0867592
-0.0885163
-0.0903328
-0.0921403
-0.0939987
-0.0958347
-0.0976456
-0.0992246
-0.100616
0.0314823
0.0236279
0.0107492
0.00223931
-0.00107452
-0.00162703
-0.00141602
-0.00146493
-0.00221284
-0.00354874
-0.00486002
-0.0056885
-0.00621969
-0.00680936
-0.00751828
-0.00832353
-0.00921405
-0.0100248
-0.0106512
-0.0112518
-0.0119539
-0.0126746
-0.013328
-0.0139436
-0.0145992
-0.0153134
-0.0160389
-0.0167638
-0.0175088
-0.0182637
-0.0190332
-0.0198411
-0.0206576
-0.0214079
-0.0220712
-0.0227266
-0.0234427
-0.0241707
-0.0248686
-0.0256007
-0.0263793
-0.027148
-0.0279089
-0.028701
-0.0295048
-0.0303126
-0.031137
-0.0319638
-0.0327826
-0.0336309
-0.0345189
-0.0354348
-0.0363525
-0.0372898
-0.0382508
-0.0391798
-0.0400732
-0.0410077
-0.0419935
-0.0429933
-0.0440217
-0.0450887
-0.0461705
-0.0472404
-0.0483359
-0.0494572
-0.0505962
-0.0517444
-0.0529111
-0.0540879
-0.0553179
-0.0565945
-0.0578854
-0.0591802
-0.060491
-0.0618182
-0.0631655
-0.0645502
-0.0659725
-0.0674126
-0.0688856
-0.0703731
-0.0719006
-0.0734407
-0.0750215
-0.0766213
-0.0782457
-0.0799008
-0.0815606
-0.0832721
-0.0849876
-0.0867591
-0.0885162
-0.0903327
-0.0921403
-0.0939987
-0.0958347
-0.0976455
-0.0992246
-0.100616
0.0301866
0.0235383
0.0110629
0.00251582
-0.000932333
-0.00157306
-0.00139203
-0.00144589
-0.0021956
-0.00353072
-0.00483995
-0.00567041
-0.00620792
-0.00680403
-0.00751616
-0.00832107
-0.00920994
-0.0100202
-0.0106473
-0.011249
-0.0119514
-0.0126717
-0.0133249
-0.0139408
-0.0145969
-0.0153113
-0.0160369
-0.0167618
-0.0175069
-0.018262
-0.0190318
-0.0198398
-0.0206565
-0.0214069
-0.0220702
-0.0227256
-0.0234418
-0.0241699
-0.0248679
-0.0256
-0.0263787
-0.0271474
-0.0279083
-0.0287005
-0.0295044
-0.0303121
-0.0311366
-0.0319635
-0.0327822
-0.0336305
-0.0345185
-0.0354345
-0.0363522
-0.0372894
-0.0382506
-0.0391795
-0.0400729
-0.0410074
-0.0419932
-0.042993
-0.0440215
-0.0450884
-0.0461703
-0.0472402
-0.0483357
-0.049457
-0.050596
-0.0517442
-0.0529109
-0.0540877
-0.0553177
-0.0565943
-0.0578853
-0.0591801
-0.0604909
-0.0618181
-0.0631654
-0.06455
-0.0659723
-0.0674125
-0.0688855
-0.070373
-0.0719005
-0.0734406
-0.0750214
-0.0766212
-0.0782456
-0.0799008
-0.0815605
-0.083272
-0.0849875
-0.086759
-0.0885161
-0.0903326
-0.0921402
-0.0939986
-0.0958346
-0.0976456
-0.0992248
-0.100616
0.0288516
0.0233257
0.0113766
0.00281782
-0.000775395
-0.00151344
-0.00136515
-0.00142482
-0.00217754
-0.00350981
-0.00481224
-0.00564266
-0.00618872
-0.00679553
-0.00751461
-0.00832022
-0.00920586
-0.010014
-0.0106425
-0.0112462
-0.0119488
-0.0126681
-0.0133208
-0.0139373
-0.0145943
-0.0153091
-0.0160344
-0.0167591
-0.0175042
-0.0182597
-0.0190299
-0.0198382
-0.020655
-0.0214055
-0.022069
-0.0227244
-0.0234407
-0.0241689
-0.0248669
-0.0255991
-0.026378
-0.0271468
-0.0279077
-0.0287
-0.0295038
-0.0303116
-0.0311362
-0.031963
-0.0327818
-0.0336301
-0.034518
-0.0354341
-0.0363518
-0.0372891
-0.0382503
-0.0391792
-0.0400725
-0.0410071
-0.0419929
-0.0429927
-0.0440212
-0.0450882
-0.04617
-0.0472399
-0.0483354
-0.0494568
-0.0505958
-0.051744
-0.0529107
-0.0540874
-0.0553175
-0.0565941
-0.0578851
-0.0591799
-0.0604907
-0.0618179
-0.0631652
-0.0645499
-0.0659722
-0.0674124
-0.0688853
-0.0703729
-0.0719004
-0.0734405
-0.0750212
-0.0766211
-0.0782455
-0.0799007
-0.0815604
-0.0832719
-0.0849874
-0.0867589
-0.0885161
-0.0903326
-0.0921401
-0.0939986
-0.0958346
-0.0976456
-0.0992251
-0.100616
0.027493
0.0230134
0.0116983
0.00314961
-0.000604254
-0.00144981
-0.00133762
-0.00140359
-0.00215982
-0.00348852
-0.00478122
-0.00560905
-0.00616366
-0.00678335
-0.00751241
-0.00832034
-0.00920189
-0.0100068
-0.010637
-0.0112436
-0.0119462
-0.0126632
-0.0133151
-0.0139329
-0.0145915
-0.0153069
-0.0160317
-0.0167556
-0.0175006
-0.0182567
-0.0190275
-0.019836
-0.0206526
-0.0214032
-0.0220672
-0.0227229
-0.0234391
-0.0241673
-0.0248656
-0.025598
-0.0263771
-0.0271459
-0.0279069
-0.0286993
-0.0295032
-0.030311
-0.0311356
-0.0319625
-0.0327813
-0.0336296
-0.0345175
-0.0354336
-0.0363514
-0.0372887
-0.0382499
-0.0391789
-0.0400722
-0.0410067
-0.0419925
-0.0429923
-0.0440209
-0.0450879
-0.0461698
-0.0472397
-0.0483352
-0.0494565
-0.0505956
-0.0517437
-0.0529104
-0.0540872
-0.0553172
-0.0565939
-0.0578849
-0.0591797
-0.0604905
-0.0618178
-0.063165
-0.0645497
-0.065972
-0.0674122
-0.0688852
-0.0703727
-0.0719003
-0.0734403
-0.0750211
-0.076621
-0.0782454
-0.0799006
-0.0815603
-0.0832718
-0.0849873
-0.0867589
-0.088516
-0.0903325
-0.0921401
-0.0939985
-0.0958346
-0.0976458
-0.0992256
-0.100616
0.0261503
0.0226212
0.0120292
0.0035078
-0.000423517
-0.00138625
-0.0013124
-0.00138354
-0.00214231
-0.00346741
-0.00474955
-0.00557338
-0.00613567
-0.00676854
-0.00750899
-0.00832047
-0.00919789
-0.0099993
-0.0106318
-0.0112418
-0.0119434
-0.0126571
-0.0133077
-0.0139272
-0.0145882
-0.0153046
-0.016029
-0.0167517
-0.017496
-0.0182528
-0.0190246
-0.0198332
-0.0206492
-0.0213999
-0.0220647
-0.0227208
-0.0234369
-0.0241652
-0.0248639
-0.0255966
-0.0263757
-0.0271446
-0.0279058
-0.0286984
-0.0295024
-0.0303103
-0.0311349
-0.0319619
-0.0327806
-0.0336289
-0.034517
-0.0354331
-0.036351
-0.0372883
-0.0382495
-0.0391786
-0.0400718
-0.0410063
-0.0419921
-0.042992
-0.0440205
-0.0450876
-0.0461695
-0.0472394
-0.0483349
-0.0494563
-0.0505953
-0.0517435
-0.0529102
-0.0540869
-0.0553169
-0.0565937
-0.0578847
-0.0591795
-0.0604903
-0.0618176
-0.0631648
-0.0645495
-0.0659719
-0.067412
-0.068885
-0.0703726
-0.0719001
-0.0734402
-0.075021
-0.0766209
-0.0782452
-0.0799005
-0.0815601
-0.0832717
-0.0849872
-0.0867588
-0.0885159
-0.0903324
-0.09214
-0.0939985
-0.0958347
-0.097646
-0.0992263
-0.100616
0.0248489
0.0221491
0.0123505
0.00388329
-0.00023543
-0.00132345
-0.00128964
-0.00136459
-0.00212458
-0.00344615
-0.00471765
-0.00553686
-0.00610621
-0.00675206
-0.00750436
-0.00832017
-0.00919384
-0.00999195
-0.0106273
-0.0112409
-0.0119409
-0.0126499
-0.0132985
-0.01392
-0.0145841
-0.0153021
-0.0160263
-0.0167477
-0.0174911
-0.0182485
-0.0190215
-0.0198298
-0.0206448
-0.0213955
-0.0220614
-0.0227182
-0.023434
-0.0241623
-0.0248616
-0.0255948
-0.0263739
-0.0271429
-0.0279044
-0.0286973
-0.0295014
-0.0303094
-0.0311341
-0.0319611
-0.0327799
-0.0336282
-0.0345162
-0.0354324
-0.0363505
-0.0372878
-0.038249
-0.0391781
-0.0400714
-0.0410058
-0.0419916
-0.0429915
-0.0440202
-0.0450873
-0.0461692
-0.0472391
-0.0483346
-0.049456
-0.050595
-0.0517432
-0.0529099
-0.0540866
-0.0553166
-0.0565934
-0.0578845
-0.0591793
-0.0604901
-0.0618173
-0.0631645
-0.0645493
-0.0659716
-0.0674118
-0.0688849
-0.0703724
-0.0718999
-0.07344
-0.0750208
-0.0766208
-0.0782451
-0.0799003
-0.08156
-0.0832716
-0.0849871
-0.0867587
-0.0885158
-0.0903323
-0.0921399
-0.0939984
-0.0958348
-0.0976463
-0.0992272
-0.100616
0.0236034
0.0215929
0.0126448
0.00427282
-3.60877e-05
-0.00125857
-0.00126811
-0.00134648
-0.00210653
-0.00342452
-0.00468534
-0.00549955
-0.00607565
-0.00673437
-0.00749885
-0.00831964
-0.00918999
-0.00998503
-0.0106236
-0.0112412
-0.011939
-0.0126422
-0.013288
-0.0139117
-0.0145792
-0.0152992
-0.0160234
-0.0167436
-0.017486
-0.0182441
-0.0190184
-0.0198262
-0.0206396
-0.0213899
-0.0220573
-0.022715
-0.0234304
-0.0241587
-0.024859
-0.0255927
-0.0263717
-0.0271408
-0.0279027
-0.0286958
-0.0295001
-0.0303082
-0.0311331
-0.0319602
-0.032779
-0.0336272
-0.0345151
-0.0354315
-0.0363497
-0.0372872
-0.0382484
-0.0391776
-0.0400709
-0.0410053
-0.041991
-0.042991
-0.0440198
-0.0450869
-0.0461688
-0.0472388
-0.0483343
-0.0494556
-0.0505947
-0.0517429
-0.0529096
-0.0540862
-0.0553162
-0.0565931
-0.0578842
-0.059179
-0.0604898
-0.061817
-0.0631643
-0.064549
-0.0659714
-0.0674116
-0.0688846
-0.0703722
-0.0718997
-0.0734399
-0.0750207
-0.0766206
-0.078245
-0.0799002
-0.0815599
-0.0832715
-0.084987
-0.0867586
-0.0885156
-0.0903322
-0.0921398
-0.0939983
-0.095835
-0.0976467
-0.0992283
-0.100617
0.0224252
0.0209569
0.0129004
0.00467539
0.000179105
-0.00118909
-0.00124714
-0.00132975
-0.00208879
-0.00340268
-0.0046526
-0.00546142
-0.00604408
-0.00671578
-0.00749287
-0.00831926
-0.00918657
-0.00997858
-0.0106207
-0.0112425
-0.0119379
-0.0126347
-0.0132771
-0.0139025
-0.0145736
-0.0152959
-0.0160204
-0.0167395
-0.0174809
-0.0182399
-0.0190156
-0.0198228
-0.020634
-0.0213838
-0.0220526
-0.0227112
-0.023426
-0.0241544
-0.024856
-0.0255904
-0.0263691
-0.0271383
-0.0279006
-0.0286939
-0.0294984
-0.0303068
-0.0311319
-0.0319592
-0.0327781
-0.0336262
-0.0345138
-0.0354302
-0.0363487
-0.0372864
-0.0382476
-0.039177
-0.0400705
-0.0410047
-0.0419903
-0.0429904
-0.0440193
-0.0450864
-0.0461684
-0.0472384
-0.048334
-0.0494553
-0.0505944
-0.0517426
-0.0529093
-0.0540858
-0.0553158
-0.0565928
-0.0578839
-0.0591788
-0.0604895
-0.0618167
-0.0631639