/*--------------------------------*- C++ -*----------------------------------*\
| =========                 |                                                 |
| \\      /  F ield         | OpenFOAM: The Open Source CFD Toolbox           |
|  \\    /   O peration     | Version:  3.0.1                                 |
|   \\  /    A nd           | Web:      www.OpenFOAM.org                      |
|    \\/     M anipulation  |                                                 |
\*---------------------------------------------------------------------------*/
FoamFile
{
    version     2.0;
    format      ascii;
    class       surfaceScalarField;
    location    "4.4";
    object      phi;
}
// * * * * * * * * * * * * * * * * * * * * * * * * * * * * * * * * * * * * * //

dimensions      [0 3 -1 0 0 0 0];

internalField   nonuniform List<scalar> 
19000
(
1.14202e-06
-2.11998e-07
1.17028e-06
-5.94129e-08
1.17749e-06
-4.59436e-07
1.16922e-06
1.23827e-07
1.16088e-06
1.94381e-06
1.10622e-06
-6.79257e-07
1.12964e-06
3.93101e-07
1.12446e-06
-1.61248e-06
1.14622e-06
-1.05415e-06
1.20047e-06
-4.99959e-07
1.20243e-06
-4.10456e-07
1.20557e-06
2.22704e-08
1.2181e-06
7.6479e-07
1.17324e-06
-1.0231e-07
1.19945e-06
1.31683e-06
1.13239e-06
-1.04949e-07
1.16204e-06
8.20135e-07
1.10988e-06
-1.90307e-07
1.13151e-06
3.35601e-07
-4.23703e-07
1.03504e-06
1.19869e-06
-1.86428e-07
1.22681e-06
-8.75279e-08
1.23471e-06
-4.67342e-07
1.2267e-06
1.31842e-07
1.2157e-06
1.95481e-06
1.16555e-06
-6.29113e-07
1.17863e-06
3.80025e-07
1.1735e-06
-1.60735e-06
1.1949e-06
-1.07555e-06
1.2523e-06
-5.57364e-07
1.25497e-06
-4.13118e-07
1.26335e-06
1.3891e-08
1.27361e-06
7.54522e-07
1.23502e-06
-6.37171e-08
1.24412e-06
1.30773e-06
1.20237e-06
-6.3208e-08
1.2043e-06
8.18214e-07
1.18828e-06
-1.74297e-07
1.18242e-06
3.41466e-07
-3.82661e-07
1.14138e-06
1.25928e-06
-1.62928e-07
1.28539e-06
-1.13636e-07
1.29532e-06
-4.77268e-07
1.28634e-06
1.40818e-07
1.27674e-06
1.96441e-06
1.23065e-06
-5.83025e-07
1.23692e-06
3.73757e-07
1.23401e-06
-1.60443e-06
1.24993e-06
-1.09148e-06
1.3035e-06
-6.10928e-07
1.31347e-06
-4.23089e-07
1.32005e-06
7.31456e-09
1.33088e-06
7.43693e-07
1.29672e-06
-2.95623e-08
1.30315e-06
1.3013e-06
1.27175e-06
-3.18123e-08
1.28008e-06
8.09891e-07
1.26762e-06
-1.61841e-07
1.27821e-06
3.30874e-07
-3.4172e-07
1.23727e-06
1.32378e-06
-1.42605e-07
1.34591e-06
-1.35767e-07
1.3578e-06
-4.8916e-07
1.34839e-06
1.50232e-07
1.34145e-06
1.97135e-06
1.30028e-06
-5.41854e-07
1.30097e-06
3.73073e-07
1.29797e-06
-1.60143e-06
1.30939e-06
-1.1029e-06
1.35761e-06
-6.59142e-07
1.37499e-06
-4.40476e-07
1.37949e-06
2.82269e-09
1.38836e-06
7.34821e-07
1.35843e-06
3.64051e-10
1.36537e-06
1.29437e-06
1.34028e-06
-6.72615e-09
1.35516e-06
7.95018e-07
1.33898e-06
-1.45668e-07
1.3551e-06
3.14758e-07
-2.92282e-07
1.30566e-06
1.39224e-06
-1.26491e-07
1.40909e-06
-1.52621e-07
1.4213e-06
-5.01364e-07
1.41173e-06
1.59795e-07
1.40856e-06
1.97452e-06
1.37312e-06
-5.06407e-07
1.37148e-06
3.74711e-07
1.36547e-06
-1.59542e-06
1.37313e-06
-1.11056e-06
1.41541e-06
-7.01429e-07
1.43775e-06
-4.62816e-07
1.44227e-06
-1.69509e-09
1.44989e-06
7.272e-07
1.42208e-06
2.8175e-08
1.43398e-06
1.28247e-06
1.41231e-06
1.49491e-08
1.43283e-06
7.74488e-07
1.41208e-06
-1.24913e-07
1.43066e-06
2.96177e-07
-2.39782e-07
1.37816e-06
1.46432e-06
-1.15131e-07
1.4758e-06
-1.64107e-07
1.48545e-06
-5.11014e-07
1.47597e-06
1.69277e-07
1.47762e-06
1.97287e-06
1.44897e-06
-4.7776e-07
1.44754e-06
3.76146e-07
1.43603e-06
-1.58392e-06
1.44029e-06
-1.11482e-06
1.47648e-06
-7.3762e-07
1.50079e-06
-4.87125e-07
1.50741e-06
-8.32309e-09
1.51609e-06
7.18519e-07
1.4909e-06
5.33679e-08
1.50745e-06
1.26592e-06
1.48756e-06
3.48386e-08
1.51182e-06
7.50226e-07
1.486e-06
-9.90934e-08
1.50533e-06
2.76851e-07
-1.85776e-07
1.45132e-06
1.53929e-06
-1.08205e-07
1.54625e-06
-1.71063e-07
1.5507e-06
-5.15466e-07
1.54206e-06
1.77922e-07
1.54951e-06
1.96542e-06
1.52833e-06
-4.56585e-07
1.52876e-06
3.75716e-07
1.51019e-06
-1.56534e-06
1.5108e-06
-1.11543e-06
1.54056e-06
-7.67377e-07
1.56448e-06
-5.11042e-07
1.57409e-06
-1.79321e-08
1.58594e-06
7.0667e-07
1.56458e-06
7.47289e-08
1.58605e-06
1.24445e-06
1.56598e-06
5.49049e-08
1.59299e-06
7.23212e-07
1.56243e-06
-6.8528e-08
1.58181e-06
2.57473e-07
-1.31472e-07
1.5275e-06
1.61658e-06
-1.04659e-07
1.62004e-06
-1.74517e-07
1.61812e-06
-5.13547e-07
1.61194e-06
1.84103e-07
1.62574e-06
1.95162e-06
1.61161e-06
-4.42452e-07
1.6146e-06
3.72718e-07
1.5883e-06
-1.53904e-06
1.58518e-06
-1.11231e-06
1.60798e-06
-7.90185e-07
1.6298e-06
-5.32861e-07
1.64236e-06
-3.04916e-08
1.6584e-06
6.90631e-07
1.64173e-06
9.13984e-08
1.66833e-06
1.21785e-06
1.64684e-06
7.63875e-08
1.67572e-06
6.94336e-07
1.64077e-06
-3.35813e-08
1.65977e-06
2.38475e-07
-7.77405e-08
1.60604e-06
1.69614e-06
-1.03229e-07
1.69681e-06
-1.75178e-07
1.68903e-06
-5.05771e-07
1.68743e-06
1.857e-07
1.70749e-06
1.93156e-06
1.69866e-06
-4.33623e-07
1.70423e-06
3.67148e-07
1.67053e-06
-1.50535e-06
1.664e-06
-1.10578e-06
1.67931e-06
-8.0549e-07
1.69775e-06
-5.513e-07
1.71272e-06
-4.54669e-08
1.73317e-06
6.70184e-07
1.72121e-06
1.03359e-07
1.75302e-06
1.18604e-06
1.72949e-06
9.99181e-08
1.75967e-06
6.64158e-07
1.721e-06
5.0863e-09
1.73925e-06
2.20227e-07
-2.56826e-08
1.68719e-06
1.7784e-06
-1.02904e-07
1.77667e-06
-1.73447e-07
1.76457e-06
-4.9367e-07
1.76918e-06
1.81087e-07
1.79485e-06
1.90588e-06
1.78879e-06
-4.27561e-07
1.79659e-06
3.59355e-07
1.75677e-06
-1.46553e-06
1.74753e-06
-1.09654e-06
1.75503e-06
-8.12988e-07
1.76913e-06
-5.65404e-07
1.78564e-06
-6.19748e-08
1.81015e-06
6.45677e-07
1.80223e-06
1.11275e-07
1.83906e-06
1.14921e-06
1.81336e-06
1.25623e-07
1.84448e-06
6.33032e-07
1.80305e-06
4.65186e-08
1.82013e-06
2.03144e-07
2.3374e-08
1.77108e-06
1.86391e-06
-1.03067e-07
1.86017e-06
-1.69704e-07
1.84546e-06
-4.78957e-07
1.85646e-06
1.70086e-07
1.88688e-06
1.87546e-06
1.88115e-06
-4.21834e-07
1.89078e-06
3.49728e-07
1.84675e-06
-1.4215e-06
1.83554e-06
-1.08533e-06
1.83546e-06
-8.12907e-07
1.84471e-06
-5.74655e-07
1.86151e-06
-7.87713e-08
1.88931e-06
6.17873e-07
1.88433e-06
1.16259e-07
1.9257e-06
1.10783e-06
1.89813e-06
1.53193e-07
1.93002e-06
6.01143e-07
1.88715e-06
8.93964e-08
1.90254e-06
1.87752e-07
6.79699e-08
1.85794e-06
1.95317e-06
-1.034e-07
1.94795e-06
-1.64484e-07
1.932e-06
-4.63003e-07
1.94792e-06
1.54164e-07
1.98222e-06
1.84116e-06
1.97522e-06
-4.14835e-07
1.9864e-06
3.38551e-07
1.94016e-06
-1.37526e-06
1.92755e-06
-1.07272e-06
1.92075e-06
-8.06101e-07
1.92524e-06
-5.79152e-07
1.94082e-06
-9.43505e-08
1.97089e-06
5.87805e-07
1.96752e-06
1.19629e-07
2.01275e-06
1.0626e-06
1.98397e-06
1.81975e-07
2.01648e-06
5.68633e-07
1.97377e-06
1.32102e-07
1.98688e-06
1.74647e-07
1.06791e-07
1.94806e-06
2.04654e-06
-1.03752e-07
2.04047e-06
-1.58418e-07
2.02416e-06
-4.46693e-07
2.04258e-06
1.3575e-07
2.08e-06
1.80374e-06
2.07116e-06
-4.05994e-07
2.08373e-06
3.25983e-07
2.03693e-06
-1.32846e-06
2.02322e-06
-1.05901e-06
2.01095e-06
-7.93833e-07
2.01145e-06
-5.79653e-07
2.02435e-06
-1.07255e-07
2.05558e-06
5.56581e-07
2.05255e-06
1.22654e-07
2.10071e-06
1.01445e-06
2.07157e-06
2.11114e-07
2.10443e-06
5.35768e-07
2.06361e-06
1.72931e-07
2.07382e-06
1.64428e-07
1.3884e-07
2.04177e-06
2.1443e-06
-1.04054e-07
2.13796e-06
-1.52079e-07
2.12173e-06
-4.30455e-07
2.14027e-06
1.17204e-07
2.18014e-06
1.76388e-06
2.16966e-06
-3.95524e-07
2.18356e-06
3.12086e-07
2.13721e-06
-1.28212e-06
2.12254e-06
-1.04434e-06
2.10607e-06
-7.7737e-07
2.10378e-06
-5.77357e-07
2.11299e-06
-1.16471e-07
2.14435e-06
5.25225e-07
2.14068e-06
1.26322e-07
2.19068e-06
9.64447e-07
2.16205e-06
2.39749e-07
2.19481e-06
5.03007e-07
2.15737e-06
2.10363e-07
2.16423e-06
1.57574e-07
1.63585e-07
2.13949e-06
2.24672e-06
-1.04286e-07
2.24052e-06
-1.45883e-07
2.22443e-06
-4.1436e-07
2.24152e-06
1.00112e-07
2.28323e-06
1.72217e-06
2.27169e-06
-3.83984e-07
2.28692e-06
2.96852e-07
2.24139e-06
-1.23658e-06
2.2259e-06
-1.02885e-06
2.20617e-06
-7.57635e-07
2.20227e-06
-5.73464e-07
2.20746e-06
-1.21662e-07
2.23811e-06
4.94577e-07
2.23324e-06
1.31198e-07
2.28401e-06
9.13676e-07
2.25663e-06
2.67124e-07
2.28866e-06
4.70975e-07
2.25582e-06
2.43209e-07
2.25905e-06
1.54343e-07
1.81044e-07
2.24159e-06
2.35403e-06
-1.04441e-07
2.34824e-06
-1.40091e-07
2.33213e-06
-3.98253e-07
2.34709e-06
8.51581e-08
2.39015e-06
1.6791e-06
2.37809e-06
-3.71921e-07
2.39471e-06
2.80236e-07
2.34988e-06
-1.19176e-06
2.33384e-06
-1.01281e-06
2.31133e-06
-7.35123e-07
2.30665e-06
-5.68781e-07
2.30807e-06
-1.2308e-07
2.33739e-06
4.65251e-07
2.3312e-06
1.37391e-07
2.38184e-06
8.63035e-07
2.35638e-06
2.92585e-07
2.38703e-06
4.40322e-07
2.35951e-06
2.70726e-07
2.35929e-06
1.54563e-07
1.91873e-07
2.34847e-06
2.46646e-06
-1.04507e-07
2.46121e-06
-1.34844e-07
2.44487e-06
-3.81907e-07
2.45766e-06
7.2369e-08
2.50176e-06
1.635e-06
2.48951e-06
-3.59669e-07
2.50753e-06
2.62216e-07
2.46308e-06
-1.14731e-06
2.44682e-06
-9.96546e-07
2.42177e-06
-7.10076e-07
2.41659e-06
-5.63597e-07
2.41481e-06
-1.21301e-07
2.44241e-06
4.37653e-07
2.43519e-06
1.44615e-07
2.485e-06
8.13224e-07
2.46207e-06
3.15516e-07
2.49078e-06
4.1161e-07
2.4689e-06
2.92603e-07
2.46573e-06
1.57734e-07
1.97183e-07
2.46042e-06
2.58424e-06
-1.04449e-07
2.5796e-06
-1.3021e-07
2.56282e-06
-3.65124e-07
2.57377e-06
6.14174e-08
2.61872e-06
1.59005e-06
2.60639e-06
-3.47334e-07
2.62577e-06
2.4283e-07
2.58129e-06
-1.10283e-06
2.56513e-06
-9.8038e-07
2.53776e-06
-6.8271e-07
2.532e-06
-5.57838e-07
2.52772e-06
-1.17014e-07
2.55333e-06
4.12036e-07
2.54564e-06
1.52304e-07
2.59409e-06
7.64777e-07
2.57422e-06
3.35386e-07
2.60061e-06
3.85221e-07
2.58426e-06
3.0895e-07
2.57876e-06
1.63234e-07
1.98199e-07
2.57774e-06
2.7076e-06
-1.04221e-07
2.70361e-06
-1.26215e-07
2.68625e-06
-3.47772e-07
2.69582e-06
5.18458e-08
2.74154e-06
1.54433e-06
2.72907e-06
-3.34859e-07
2.74972e-06
2.22181e-07
2.70483e-06
-1.05794e-06
2.68897e-06
-9.64521e-07
2.65959e-06
-6.53332e-07
2.65306e-06
-5.51304e-07
2.647e-06
-1.10954e-07
2.67047e-06
3.8856e-07
2.66301e-06
1.59772e-07
2.70967e-06
7.18109e-07
2.69319e-06
3.51868e-07
2.7171e-06
3.61309e-07
2.70581e-06
3.20247e-07
2.69863e-06
1.70408e-07
1.9613e-07
2.7007e-06
2.83681e-06
-1.03765e-07
2.83347e-06
-1.22871e-07
2.81547e-06
-3.29775e-07
2.82412e-06
4.31938e-08
2.87059e-06
1.49786e-06
2.85783e-06
-3.22105e-07
2.87962e-06
2.00398e-07
2.83401e-06
-1.01233e-06
2.81854e-06
-9.49059e-07
2.78756e-06
-6.22347e-07
2.78006e-06
-5.43808e-07
2.77303e-06
-1.03923e-07
2.79426e-06
3.67334e-07
2.78766e-06
1.66367e-07
2.83226e-06
6.7351e-07
2.81921e-06
3.64916e-07
2.84062e-06
3.39908e-07
2.83381e-06
3.27057e-07
2.82543e-06
1.78785e-07
1.91979e-07
2.82958e-06
2.97216e-06
-1.03029e-07
2.96947e-06
-1.20187e-07
2.9508e-06
-3.11095e-07
2.95892e-06
3.50668e-08
3.00614e-06
1.45065e-06
2.99294e-06
-3.08902e-07
3.01573e-06
1.77606e-07
2.96918e-06
-9.65784e-07
2.9541e-06
-9.33976e-07
2.92197e-06
-5.9022e-07
2.91333e-06
-5.35166e-07
2.90619e-06
-9.67851e-08
2.92509e-06
3.48435e-07
2.91985e-06
1.71606e-07
2.96227e-06
6.31099e-07
2.95239e-06
3.74793e-07
2.97141e-06
3.20882e-07
2.96845e-06
3.30017e-07
2.95923e-06
1.88006e-07
1.86584e-07
2.96463e-06
3.11394e-06
-1.01961e-07
3.11193e-06
-1.18175e-07
3.09255e-06
-2.91724e-07
3.10045e-06
2.71736e-08
3.14844e-06
1.40265e-06
3.13463e-06
-2.95084e-07
3.15833e-06
1.53907e-07
3.11073e-06
-9.18192e-07
3.09593e-06
-9.19167e-07
3.06315e-06
-5.57442e-07
3.05314e-06
-5.25163e-07
3.04674e-06
-9.03809e-08
3.06327e-06
3.319e-07
3.05966e-06
1.7522e-07
3.09994e-06
5.90818e-07
3.09277e-06
3.81962e-07
3.10956e-06
3.04091e-07
3.11e-06
3.29583e-07
3.10014e-06
1.97866e-07
1.80654e-07
3.10607e-06
3.26247e-06
-1.0052e-07
3.26114e-06
-1.16849e-07
3.2411e-06
-2.71676e-07
3.24893e-06
1.93427e-08
3.29774e-06
1.35384e-06
3.28315e-06
-2.80493e-07
3.30767e-06
1.29382e-07
3.25904e-06
-8.69559e-07
3.24433e-06
-9.04455e-07
3.21141e-06
-5.24529e-07
3.19975e-06
-5.13501e-07
3.19482e-06
-8.54454e-08
3.20903e-06
3.17682e-07
3.20705e-06
1.77208e-07
3.2454e-06
5.52461e-07
3.24046e-06
3.86905e-07
3.25506e-06
2.89488e-07
3.25866e-06
3.25987e-07
3.24833e-06
2.08195e-07
1.74914e-07
3.25407e-06
3.41808e-06
-9.86708e-08
3.41745e-06
-1.16219e-07
3.39678e-06
-2.51003e-07
3.4046e-06
1.1521e-08
3.45428e-06
1.30415e-06
3.43877e-06
-2.64985e-07
3.46405e-06
1.04102e-07
3.41449e-06
-8.19999e-07
3.39963e-06
-8.89588e-07
3.36712e-06
-4.92023e-07
3.35342e-06
-4.998e-07
3.35052e-06
-8.25474e-08
3.36258e-06
3.0563e-07
3.36196e-06
1.77826e-07
3.39871e-06
5.15707e-07
3.3956e-06
3.90019e-07
3.40798e-06
2.77105e-07
3.4146e-06
3.19362e-07
3.4041e-06
2.187e-07
1.70118e-07
3.40889e-06
3.58113e-06
-9.63887e-08
3.58119e-06
-1.16284e-07
3.55998e-06
-2.29789e-07
3.56775e-06
3.75454e-09
3.61835e-06
1.25355e-06
3.60181e-06
-2.48439e-07
3.62776e-06
7.81517e-08
3.57749e-06
-7.69731e-07
3.56215e-06
-8.74252e-07
3.53063e-06
-4.605e-07
3.51447e-06
-4.83636e-07
3.51395e-06
-8.20293e-08
3.52413e-06
2.95444e-07
3.52441e-06
1.77551e-07
3.55994e-06
4.80181e-07
3.55841e-06
3.91549e-07
3.56846e-06
2.67049e-07
3.57793e-06
3.09899e-07
3.56783e-06
2.28793e-07
1.67033e-07
3.57092e-06
3.75198e-06
-9.36597e-08
3.75272e-06
-1.17029e-07
3.73109e-06
-2.0816e-07
3.73868e-06
-3.83047e-09
3.79026e-06
1.20196e-06
3.77259e-06
-2.30764e-07
3.79909e-06
5.16473e-08
3.74843e-06
-7.19065e-07
3.73226e-06
-8.58088e-07
3.7023e-06
-4.30541e-07
3.68329e-06
-4.64627e-07
3.68523e-06
-8.39653e-08
3.69399e-06
2.86682e-07
3.69454e-06
1.77006e-07
3.72918e-06
4.45533e-07
3.72918e-06
3.91556e-07
3.73677e-06
2.59456e-07
3.74876e-06
2.97912e-07
3.73988e-06
2.37673e-07
1.66265e-07
3.74064e-06
3.93101e-06
-9.04802e-08
3.93239e-06
-1.18414e-07
3.91052e-06
-1.86284e-07
3.91774e-06
-1.1052e-08
3.97036e-06
1.14934e-06
3.9515e-06
-2.119e-07
3.97839e-06
2.47537e-08
3.92771e-06
-6.68388e-07
3.91031e-06
-8.40683e-07
3.88251e-06
-4.02744e-07
3.86037e-06
-4.42487e-07
3.86455e-06
-8.81465e-08
3.87247e-06
2.78766e-07
3.87264e-06
1.76834e-07
3.90656e-06
4.11613e-07
3.90831e-06
3.8981e-07
3.91327e-06
2.54496e-07
3.92725e-06
2.83927e-07
3.92052e-06
2.44409e-07
1.68134e-07
3.91865e-06
4.11863e-06
-8.68559e-08
4.12059e-06
-1.20381e-07
4.09867e-06
-1.64363e-07
4.10532e-06
-1.76965e-08
4.15901e-06
1.09565e-06
4.13895e-06
-1.9184e-07
4.166e-06
-2.30022e-09
4.11577e-06
-6.18156e-07
4.09668e-06
-8.2159e-07
4.0716e-06
-3.77666e-07
4.04623e-06
-4.17113e-07
4.05217e-06
-9.40926e-08
4.05992e-06
2.71018e-07
4.05912e-06
1.77636e-07
4.09227e-06
3.78465e-07
4.09612e-06
3.85952e-07
4.09847e-06
2.52145e-07
4.1136e-06
2.68803e-07
4.10995e-06
2.48055e-07
1.72454e-07
4.10563e-06
4.31525e-06
-8.28015e-08
4.31771e-06
-1.22843e-07
4.29598e-06
-1.42636e-07
4.30182e-06
-2.35377e-08
4.3566e-06
1.04087e-06
4.3354e-06
-1.7064e-07
4.36231e-06
-2.92114e-08
4.31302e-06
-5.68865e-07
4.2918e-06
-8.00376e-07
4.26987e-06
-3.55729e-07
4.24143e-06
-3.88675e-07
4.24842e-06
-1.01079e-07
4.25669e-06
2.62745e-07
4.25452e-06
1.798e-07
4.28656e-06
3.46431e-07
4.29297e-06
3.79545e-07
4.293e-06
2.52107e-07
4.30818e-06
2.53627e-07
4.30828e-06
2.4796e-07
1.78493e-07
4.30224e-06
4.52131e-06
-7.83389e-08
4.52416e-06
-1.25692e-07
4.50289e-06
-1.21361e-07
4.5077e-06
-2.8357e-08
4.56353e-06
9.85049e-07
4.54133e-06
-1.48443e-07
4.56772e-06
-5.55947e-08
4.51989e-06
-5.21043e-07
4.49614e-06
-7.76627e-07
4.47761e-06
-3.37196e-07
4.44654e-06
-3.576e-07
4.45368e-06
-1.08227e-07
4.46315e-06
2.53278e-07
4.45944e-06
1.83514e-07
4.48984e-06
3.1603e-07
4.49914e-06
3.70246e-07
4.49746e-06
2.53786e-07
4.51158e-06
2.39502e-07
4.51555e-06
2.43995e-07
1.85082e-07
4.50896e-06
4.73727e-06
-7.34979e-08
4.74038e-06
-1.28796e-07
4.71982e-06
-1.00803e-07
4.72343e-06
-3.19656e-08
4.78021e-06
9.28265e-07
4.75726e-06
-1.25485e-07
4.78266e-06
-8.09982e-08
4.73683e-06
-4.75218e-07
4.71019e-06
-7.49986e-07
4.69514e-06
-3.22138e-07
4.6621e-06
-3.24567e-07
4.66845e-06
-1.14579e-07
4.67969e-06
2.42039e-07
4.67452e-06
1.88692e-07
4.70252e-06
2.8803e-07
4.71499e-06
3.57771e-07
4.7124e-06
2.56376e-07
4.72449e-06
2.27417e-07
4.73196e-06
2.36525e-07
1.90902e-07
4.72614e-06
4.96361e-06
-6.8313e-08
4.96683e-06
-1.32013e-07
4.94724e-06
-8.12113e-08
4.94949e-06
-3.42188e-08
5.00708e-06
8.70677e-07
4.98368e-06
-1.02086e-07
5.0076e-06
-1.0492e-07
4.96429e-06
-4.3191e-07
4.9345e-06
-7.20193e-07
4.92277e-06
-3.10405e-07
4.88867e-06
-2.90468e-07
4.89324e-06
-1.19154e-07
4.90664e-06
2.28643e-07
4.90039e-06
1.94935e-07
4.92519e-06
2.63235e-07
4.94077e-06
3.42194e-07
4.9383e-06
2.58841e-07
4.94778e-06
2.17934e-07
4.95775e-06
2.26562e-07
1.94618e-07
4.95403e-06
5.20083e-06
-6.28248e-08
5.20401e-06
-1.35192e-07
5.1856e-06
-6.28019e-08
5.18641e-06
-3.50284e-08
5.24458e-06
8.12501e-07
5.22111e-06
-7.86161e-08
5.24305e-06
-1.26856e-07
5.20272e-06
-3.91577e-07
5.16968e-06
-6.87157e-07
5.1609e-06
-3.01621e-07
5.12671e-06
-2.56285e-07
5.12867e-06
-1.21114e-07
5.14428e-06
2.13034e-07
5.13777e-06
2.01449e-07
5.15853e-06
2.42471e-07
5.17685e-06
3.23883e-07
5.17551e-06
2.60177e-07
5.18226e-06
2.11181e-07
5.19346e-06
2.15363e-07
1.9539e-07
5.19269e-06
5.44945e-06
-5.70811e-08
5.45244e-06
-1.38182e-07
5.43537e-06
-4.5741e-08
5.43472e-06
-3.43785e-08
5.49321e-06
7.54017e-07
5.47008e-06
-5.54816e-08
5.48954e-06
-1.46322e-07
5.45257e-06
-3.54608e-07
5.41639e-06
-6.50979e-07
5.40996e-06
-2.95191e-07
5.37672e-06
-2.23041e-07
5.3754e-06
-1.19797e-07
5.39303e-06
1.95405e-07
5.38712e-06
2.07361e-07
5.40355e-06
2.26046e-07
5.42372e-06
3.03706e-07
5.42432e-06
2.59581e-07
5.42872e-06
2.06781e-07
5.43979e-06
2.04296e-07
1.92933e-07
5.44224e-06
5.71001e-06
-5.11368e-08
5.71268e-06
-1.40844e-07
5.69707e-06
-3.01326e-08
5.69501e-06
-3.23211e-08
5.75347e-06
6.95552e-07
5.73111e-06
-3.31132e-08
5.74764e-06
-1.62854e-07
5.71434e-06
-3.21307e-07
5.67532e-06
-6.11965e-07
5.67048e-06
-2.90345e-07
5.63913e-06
-1.91697e-07
5.63421e-06
-1.14871e-07
5.65329e-06
1.7632e-07
5.64889e-06
2.11766e-07
5.66106e-06
2.13868e-07
5.68197e-06
2.82802e-07
5.68505e-06
2.56494e-07
5.68778e-06
2.04059e-07
5.6977e-06
1.94373e-07
1.87686e-07
5.70295e-06
5.98311e-06
-4.50541e-08
5.98532e-06
-1.43056e-07
5.97121e-06
-1.60202e-08
5.96785e-06
-2.89612e-08
6.02595e-06
6.37455e-07
6.00476e-06
-1.193e-08
6.01796e-06
-1.76056e-07
5.98851e-06
-2.91854e-07
5.94715e-06
-5.70606e-07
5.94302e-06
-2.86214e-07
5.9144e-06
-1.63074e-07
5.90588e-06
-1.06352e-07
5.92559e-06
1.56613e-07
5.92347e-06
2.13883e-07
5.93181e-06
2.05528e-07
5.95233e-06
2.62282e-07
5.95802e-06
2.508e-07
5.95996e-06
2.02124e-07
5.96824e-06
1.86094e-07
1.80684e-07
5.97524e-06
6.26934e-06
-3.89025e-08
6.271e-06
-1.44722e-07
6.25838e-06
-3.39446e-09
6.25385e-06
-2.44363e-08
6.31123e-06
5.80081e-07
6.29163e-06
7.6678e-09
6.30119e-06
-1.85615e-07
6.27563e-06
-2.663e-07
6.23255e-06
-5.27521e-07
6.22825e-06
-2.81913e-07
6.20296e-06
-1.37787e-07
6.19118e-06
-9.45697e-08
6.21053e-06
1.37262e-07
6.21121e-06
2.13205e-07
6.21648e-06
2.00256e-07
6.2356e-06
2.43162e-07
6.24371e-06
2.42694e-07
6.24569e-06
2.00142e-07
6.25231e-06
1.79471e-07
1.73064e-07
6.25993e-06
6.56933e-06
-3.2761e-08
6.57035e-06
-1.45748e-07
6.55922e-06
7.74339e-09
6.55365e-06
-1.8868e-08
6.60994e-06
5.23788e-07
6.59233e-06
2.5276e-08
6.59797e-06
-1.91248e-07
6.57622e-06
-2.44554e-07
6.53216e-06
-4.83458e-07
6.52687e-06
-2.7663e-07
6.50523e-06
-1.16148e-07
6.49083e-06
-8.01675e-08
6.50879e-06
1.19308e-07
6.51252e-06
2.09473e-07
6.51567e-06
1.97107e-07
6.53265e-06
2.26182e-07
6.54271e-06
2.32628e-07
6.54538e-06
1.97478e-07
6.55069e-06
1.74155e-07
1.65749e-07
6.55801e-06
6.88376e-06
-2.67256e-08
6.88403e-06
-1.46018e-07
6.87442e-06
1.73464e-08
6.86792e-06
-1.2365e-08
6.9227e-06
4.6901e-07
6.90745e-06
4.05195e-08
6.90897e-06
-1.92763e-07
6.89075e-06
-2.26335e-07
6.8466e-06
-4.39306e-07
6.83964e-06
-2.69672e-07
6.82164e-06
-9.81462e-08
6.80542e-06
-6.39484e-08
6.82112e-06
1.03606e-07
6.82781e-06
2.02787e-07
6.8299e-06
1.95012e-07
6.84436e-06
2.11725e-07
6.85572e-06
2.21261e-07
6.85946e-06
1.93745e-07
6.86399e-06
1.69622e-07
1.59245e-07
6.87049e-06
7.21332e-06
-2.09067e-08
7.21266e-06
-1.45359e-07
7.20479e-06
2.52145e-08
7.1973e-06
-4.87799e-09
7.25009e-06
4.16224e-07
7.23759e-06
5.3016e-08
7.23496e-06
-1.90126e-07
7.21976e-06
-2.11134e-07
7.17645e-06
-3.95996e-07
7.16734e-06
-2.60565e-07
7.15264e-06
-8.34467e-08
7.13549e-06
-4.6804e-08
7.1483e-06
9.07986e-08
7.15762e-06
1.93471e-07
7.15964e-06
1.92989e-07
7.17156e-06
1.99807e-07
7.18353e-06
2.09291e-07
7.18849e-06
1.88782e-07
7.1927e-06
1.65418e-07
1.53504e-07
7.19844e-06
7.55875e-06
-1.54284e-08
7.55692e-06
-1.43536e-07
7.55112e-06
3.10173e-08
7.54251e-06
3.73403e-09
7.5927e-06
3.6603e-07
7.58341e-06
6.23085e-08
7.57677e-06
-1.8348e-07
7.56386e-06
-1.98227e-07
7.52225e-06
-3.5439e-07
7.51073e-06
-2.49043e-07
7.49882e-06
-7.15402e-08
7.4816e-06
-2.95773e-08
7.4912e-06
8.11944e-08
7.5026e-06
1.82069e-07
7.5054e-06
1.90195e-07
7.51502e-06
1.90183e-07
7.52698e-06
1.97334e-07
7.53311e-06
1.82656e-07
7.53736e-06
1.61164e-07
1.48279e-07
7.54258e-06
7.9208e-06
-1.04208e-08
7.91752e-06
-1.40249e-07
7.91422e-06
3.43111e-08
7.90436e-06
1.35987e-08
7.95143e-06
3.18959e-07
7.9458e-06
6.79325e-08
7.93561e-06
-1.73289e-07
7.92404e-06
-1.86655e-07
7.88454e-06
-3.14889e-07
7.87049e-06
-2.34995e-07
7.86093e-06
-6.1976e-08
7.84432e-06
-1.29732e-08
7.85078e-06
7.47374e-08
7.86349e-06
1.69357e-07
7.86767e-06
1.86014e-07
7.87551e-06
1.8235e-07
7.88692e-06
1.85915e-07
7.89405e-06
1.75528e-07
7.89859e-06
1.56627e-07
1.43348e-07
7.90352e-06
8.30026e-06
-6.00233e-09
8.29525e-06
-1.35235e-07
8.29479e-06
3.47731e-08
8.28383e-06
2.4555e-08
8.32749e-06
2.75295e-07
8.3264e-06
6.90282e-08
8.3127e-06
-1.59592e-07
8.30055e-06
-1.74503e-07
8.26346e-06
-2.77794e-07
8.2473e-06
-2.18843e-07
8.23971e-06
-5.43791e-08
8.22453e-06
2.20396e-09
8.22804e-06
7.12294e-08
8.24121e-06
1.56187e-07
8.24701e-06
1.80214e-07
8.25378e-06
1.75574e-07
8.26421e-06
1.75486e-07
8.27213e-06
1.67606e-07
8.27703e-06
1.51734e-07
1.38484e-07
8.28189e-06
8.69792e-06
-2.25631e-09
8.69105e-06
-1.28367e-07
8.69332e-06
3.25023e-08
8.68208e-06
3.57954e-08
8.7202e-06
2.37178e-07
8.72041e-06
6.88133e-08
8.70529e-06
-1.44472e-07
8.6937e-06
-1.62912e-07
8.65985e-06
-2.43942e-07
8.64212e-06
-2.01119e-07
8.6361e-06
-4.83556e-08
8.62301e-06
1.52893e-08
8.62411e-06
7.013e-08
8.63681e-06
1.43487e-07
8.6442e-06
1.72828e-07
8.65052e-06
1.69254e-07
8.65985e-06
1.66154e-07
8.66813e-06
1.59325e-07
8.67358e-06
1.46284e-07
1.3368e-07
8.67839e-06
9.11456e-06
7.98355e-10
9.10597e-06
-1.19777e-07
9.11018e-06
2.83009e-08
9.09951e-06
4.64617e-08
9.13089e-06
2.05797e-07
9.13425e-06
6.54542e-08
9.11877e-06
-1.28994e-07
9.1065e-06
-1.50644e-07
9.07521e-06
-2.12647e-07
9.05616e-06
-1.82072e-07
9.05114e-06
-4.33283e-08
9.04053e-06
2.5897e-08
9.03997e-06
7.06874e-08
9.05143e-06
1.3203e-07
9.06013e-06
1.64125e-07
9.06643e-06
1.6295e-07
9.07476e-06
1.57825e-07
9.08301e-06
1.51073e-07
9.08904e-06
1.40262e-07
1.28791e-07
9.09393e-06
9.55106e-06
3.19935e-09
9.54106e-06
-1.09783e-07
9.54626e-06
2.31061e-08
9.53783e-06
5.48932e-08
9.56309e-06
1.80531e-07
9.56792e-06
6.06287e-08
9.55242e-06
-1.13494e-07
9.53935e-06
-1.37575e-07
9.51041e-06
-1.83711e-07
9.49053e-06
-1.6219e-07
9.48604e-06
-3.88409e-08
9.47796e-06
3.39827e-08
9.47637e-06
7.22791e-08
9.48625e-06
1.22152e-07
9.49578e-06
1.54595e-07
9.50236e-06
1.56362e-07
9.50991e-06
1.50281e-07
9.51785e-06
1.43135e-07
9.52424e-06
1.33864e-07
1.23613e-07
9.52942e-06
1.00083e-05
5.04215e-09
9.99735e-06
-9.88379e-08
1.00027e-05
1.77714e-08
9.99736e-06
6.02124e-08
1.00174e-05
1.605e-07
1.00223e-05
5.57594e-08
1.00071e-05
-9.83441e-08
9.99333e-06
-1.2379e-07
9.96657e-06
-1.56951e-07
9.9463e-06
-1.41919e-07
9.94189e-06
-3.44301e-08
9.93622e-06
3.96542e-08
9.93421e-06
7.42861e-08
9.94243e-06
1.13932e-07
9.95228e-06
1.44745e-07
9.9592e-06
1.49443e-07
9.96618e-06
1.43298e-07
9.97371e-06
1.356e-07
9.98022e-06
1.27362e-07
1.18112e-07
9.98572e-06
1.04872e-05
6.47454e-09
1.04759e-05
-8.75782e-08
1.04806e-05
1.31499e-08
1.04787e-05
6.20417e-08
1.04948e-05
1.44419e-07
1.04986e-05
5.20268e-08
1.04838e-05
-8.35829e-08
1.04696e-05
-1.09604e-07
1.04449e-05
-1.32274e-07
1.04245e-05
-1.2153e-07
1.04198e-05
-2.96674e-08
1.04162e-05
4.32204e-08
1.04144e-05
7.61118e-08
1.0421e-05
1.07298e-07
1.04307e-05
1.35081e-07
1.0438e-05
1.42166e-07
1.04446e-05
1.36692e-07
1.04517e-05
1.28459e-07
1.04581e-05
1.20921e-07
1.12478e-07
1.04638e-05
1.09888e-05
7.65916e-09
1.09779e-05
-7.66448e-08
1.09812e-05
9.89748e-09
1.09826e-05
6.05975e-08
1.0996e-05
1.31062e-07
1.09979e-05
5.00881e-08
1.09835e-05
-6.91559e-08
1.09692e-05
-9.53365e-08
1.09466e-05
-1.09663e-07
1.09264e-05
-1.01377e-07
1.09209e-05
-2.41483e-08
1.09189e-05
4.52115e-08
1.09178e-05
7.72836e-08
1.09231e-05
1.01992e-07
1.09321e-05
1.26001e-07
1.09398e-05
1.34551e-07
1.09461e-05
1.30297e-07
1.09528e-05
1.21825e-07
1.09592e-05
1.14495e-07
1.06904e-07
1.09648e-05
1.15143e-05
8.7617e-09
1.15042e-05
-6.66233e-08
1.15058e-05
8.30551e-09
1.15095e-05
5.69132e-08
1.15217e-05
1.18895e-07
1.15216e-05
5.01818e-08
1.15072e-05
-5.47537e-08
1.1493e-05
-8.11349e-08
1.14725e-05
-8.92108e-08
1.14531e-05
-8.19293e-08
1.14465e-05
-1.75785e-08
1.14456e-05
4.61719e-08
1.14452e-05
7.76815e-08
1.14496e-05
9.75444e-08
1.14579e-05
1.17745e-07
1.14657e-05
1.26755e-07
1.1472e-05
1.23969e-07
1.14781e-05
1.15706e-07
1.14846e-05
1.08047e-07
1.01562e-07
1.14899e-05
1.20647e-05
9.92887e-09
1.20561e-05
-5.80379e-08
1.2056e-05
8.37016e-09
1.20606e-05
5.2282e-08
1.20725e-05
1.07033e-07
1.20709e-05
5.17329e-08
1.20561e-05
-3.98753e-08
1.2042e-05
-6.70203e-08
1.20237e-05
-7.09785e-08
1.20054e-05
-6.36378e-08
1.1998e-05
-1.01141e-08
1.19973e-05
4.67991e-08
1.19977e-05
7.7324e-08
1.20016e-05
9.36587e-08
1.20091e-05
1.10211e-07
1.20168e-05
1.19054e-07
1.20232e-05
1.17559e-07
1.2029e-05
1.09972e-07
1.20351e-05
1.019e-07
9.61409e-08
1.20405e-05
1.26413e-05
1.12658e-08
1.26342e-05
-5.09479e-08
1.26326e-05
9.88822e-09
1.26371e-05
4.78049e-08
1.26488e-05
9.53623e-08
1.26469e-05
5.3593e-08
1.26314e-05
-2.43286e-08
1.26173e-05
-5.2913e-08
1.26011e-05
-5.48036e-08
1.25845e-05
-4.70139e-08
1.25765e-05
-2.15794e-09
1.25757e-05
4.76641e-08
1.25766e-05
7.64001e-08
1.25801e-05
9.01562e-08
1.2587e-05
1.03272e-07
1.25945e-05
1.11596e-07
1.2601e-05
1.11049e-07
1.26065e-05
1.04446e-07
1.26122e-05
9.62365e-08
9.05498e-08
1.26178e-05
1.32454e-05
1.28268e-08
1.32389e-05
-4.45051e-08
1.32366e-05
1.2206e-08
1.32401e-05
4.43653e-08
1.32516e-05
8.38019e-08
1.32503e-05
5.49383e-08
1.32345e-05
-8.58241e-09
1.32201e-05
-3.85279e-08
1.32058e-05
-4.05046e-08
1.31913e-05
-3.24291e-08
1.31833e-05
5.78045e-09
1.3182e-05
4.89478e-08
1.31832e-05
7.52788e-08
1.31864e-05
8.68829e-08
1.31927e-05
9.69758e-08
1.32e-05
1.04339e-07
1.32065e-05
1.04495e-07
1.3212e-05
9.899e-08
1.32172e-05
9.09979e-08
8.50504e-08
1.32227e-05
1.38784e-05
1.45816e-08
1.38732e-05
-3.92578e-08
1.38701e-05
1.52616e-08
1.38712e-05
4.32336e-08
1.38819e-05
7.31345e-08
1.38819e-05
5.49314e-08
1.38668e-05
6.52841e-09
1.3852e-05
-2.37695e-08
1.38392e-05
-2.76763e-08
1.38268e-05
-1.99842e-08
1.38194e-05
1.31148e-08
1.38178e-05
5.06121e-08
1.38189e-05
7.41727e-08
1.38218e-05
8.39111e-08
1.38276e-05
9.12598e-08
1.38345e-05
9.73966e-08
1.38411e-05
9.79015e-08
1.38466e-05
9.3477e-08
1.38516e-05
8.60435e-08
7.98689e-08
1.38568e-05
1.45418e-05
1.64932e-08
1.45364e-05
-3.38846e-08
1.45335e-05
1.81332e-08
1.45326e-05
4.40972e-08
1.45417e-05
6.41258e-08
1.45435e-05
5.31276e-08
1.45298e-05
2.01625e-08
1.45147e-05
-8.69014e-09
1.45026e-05
-1.55521e-08
1.44922e-05
-9.57189e-09
1.4486e-05
1.9305e-08
1.44843e-05
5.23738e-08
1.44852e-05
7.32365e-08
1.44878e-05
8.12878e-08
1.4493e-05
8.61166e-08
1.44995e-05
9.08354e-08
1.4506e-05
9.13909e-08
1.45117e-05
8.77714e-08
1.45165e-05
8.12466e-08
7.50534e-08
1.45213e-05
1.5237e-05
1.84185e-08
1.52316e-05
-2.85371e-08
1.52288e-05
2.09328e-08
1.52261e-05
4.67852e-08
1.52326e-05
5.76476e-08
1.52362e-05
4.95315e-08
1.52251e-05
3.13065e-08
1.52099e-05
6.47811e-09
1.51978e-05
-3.5076e-09
1.51889e-05
-6.14092e-10
1.51841e-05
2.40925e-08
1.51828e-05
5.3707e-08
1.51836e-05
7.2422e-08
1.51859e-05
7.898e-08
1.51903e-05
8.16546e-08
1.51965e-05
8.46739e-08
1.52029e-05
8.5047e-08
1.52086e-05
8.20136e-08
1.52135e-05
7.63339e-08
7.05484e-08
1.5218e-05
1.59656e-05
2.01977e-08
1.59595e-05
-2.24669e-08
1.59571e-05
2.32722e-08
1.59534e-05
5.05431e-08
1.59566e-05
5.44292e-08
1.59613e-05
4.48251e-08
1.59535e-05
3.90755e-08
1.59391e-05
2.09577e-08
1.59269e-05
8.67993e-09
1.59185e-05
7.76706e-09
1.59149e-05
2.76668e-08
1.59145e-05
5.41248e-08
1.59155e-05
7.14322e-08
1.59175e-05
7.69446e-08
1.59213e-05
7.78581e-08
1.5927e-05
7.90441e-08
1.59331e-05
7.89106e-08
1.59388e-05
7.63217e-08
1.59439e-05
7.12317e-08
6.61534e-08
1.59483e-05
1.67291e-05
2.1718e-08
1.67211e-05
-1.45347e-08
1.67196e-05
2.48342e-08
1.67163e-05
5.38687e-08
1.67162e-05
5.44733e-08
1.67205e-05
4.0519e-08
1.67164e-05
4.32151e-08
1.67037e-05
3.36459e-08
1.66914e-05
2.09876e-08
1.66831e-05
1.60734e-08
1.66802e-05
3.0597e-08
1.66807e-05
5.3569e-08
1.66823e-05
6.98098e-08
1.66843e-05
7.49857e-08
1.66876e-05
7.45689e-08
1.66925e-05
7.4155e-08
1.66984e-05
7.2975e-08
1.67039e-05
7.08069e-08
1.67091e-05
6.60904e-08
6.15932e-08
1.67136e-05
1.75292e-05
2.28598e-08
1.75212e-05
-6.54641e-09
1.75193e-05
2.67815e-08
1.75165e-05
5.66133e-08
1.75138e-05
5.7182e-08
1.75161e-05
3.8245e-08
1.7515e-05
4.43267e-08
1.75051e-05
4.35667e-08
1.74931e-05
3.29239e-08
1.74846e-05
2.45954e-08
1.74818e-05
3.34425e-08
1.7483e-05
5.23824e-08
1.74854e-05
6.73228e-08
1.74877e-05
7.26953e-08
1.74907e-05
7.1631e-08
1.74949e-05
6.9925e-08
1.75003e-05
6.75574e-08
1.75058e-05
6.53168e-08
1.75108e-05
6.11114e-08
5.68893e-08
1.75155e-05
1.83676e-05
2.36271e-08
1.83593e-05
1.68982e-09
1.83572e-05
2.88816e-08
1.83556e-05
5.82344e-08
1.83513e-05
6.15276e-08
1.83506e-05
3.89138e-08
1.83511e-05
4.38527e-08
1.83444e-05
5.02053e-08
1.83337e-05
4.3674e-08
1.8325e-05
3.32953e-08
1.83219e-05
3.65734e-08
1.83232e-05
5.09993e-08
1.83264e-05
6.41649e-08
1.83293e-05
6.97953e-08
1.83322e-05
6.8718e-08
1.8336e-05
6.61516e-08
1.83407e-05
6.27992e-08
1.83461e-05
5.9938e-08
1.83509e-05
5.62928e-08
5.22205e-08
1.83556e-05
1.9246e-05
2.40583e-08
1.92378e-05
9.83933e-09
1.92352e-05
3.1481e-08
1.92347e-05
5.8702e-08
1.92301e-05
6.6205e-08