/*--------------------------------*- C++ -*----------------------------------*\
| =========                 |                                                 |
| \\      /  F ield         | OpenFOAM: The Open Source CFD Toolbox           |
|  \\    /   O peration     | Version:  3.0.1                                 |
|   \\  /    A nd           | Web:      www.OpenFOAM.org                      |
|    \\/     M anipulation  |                                                 |
\*---------------------------------------------------------------------------*/
FoamFile
{
    version     2.0;
    format      ascii;
    class       volVectorField;
    location    "4.4";
    object      U;
}
// * * * * * * * * * * * * * * * * * * * * * * * * * * * * * * * * * * * * * //

dimensions      [0 1 -1 0 0 0 0];

internalField   nonuniform List<vector> 
9600
(
(0.939876 -0.00232074 0)
(1.01196 -0.000397453 0)
(0.992616 -0.00539464 0)
(1.02022 0.00157099 0)
(0.985676 0.0274598 0)
(0.996392 -0.011045 0)
(0.906532 0.00686361 0)
(1.01793 -0.0293556 0)
(0.913628 -0.0205643 0)
(1.04105 -0.00987543 0)
(1.01675 -0.00955166 0)
(1.03569 0.000601198 0)
(1.03018 0.0216695 0)
(1.05258 -0.00408312 0)
(0.968069 0.0439801 0)
(1.06403 -0.00533973 0)
(0.900315 0.032723 0)
(1.06234 -0.00925064 0)
(0.85588 0.0156088 0)
(1.05899 -0.0226455 0)
(0.946444 -0.00200932 0)
(1.0091 -0.00080834 0)
(0.996023 -0.00552161 0)
(1.01924 0.00163918 0)
(0.987636 0.0274107 0)
(0.99484 -0.0100226 0)
(0.917369 0.00641294 0)
(0.999778 -0.0292727 0)
(0.922574 -0.0210588 0)
(1.02506 -0.0113446 0)
(1.02075 -0.00967196 0)
(1.02853 0.000528606 0)
(1.03578 0.021042 0)
(1.04251 -0.00240234 0)
(0.983653 0.0431381 0)
(1.03566 -0.00298608 0)
(0.945139 0.032045 0)
(1.0039 -0.00816067 0)
(0.950584 0.0168914 0)
(0.965456 -0.0239129 0)
(0.957665 -0.00174257 0)
(1.00374 -0.00112478 0)
(1.00086 -0.00562393 0)
(1.01712 0.00175279 0)
(0.991161 0.0275935 0)
(0.995771 -0.00926909 0)
(0.930923 0.00623742 0)
(0.98984 -0.0292066 0)
(0.938588 -0.0214621 0)
(1.0071 -0.0126455 0)
(1.02437 -0.00976673 0)
(1.02286 0.000255799 0)
(1.03554 0.020691 0)
(1.03721 -0.00132312 0)
(0.992761 0.0427037 0)
(1.02598 -0.00156612 0)
(0.972734 0.0313791 0)
(1.0045 -0.00680208 0)
(0.986041 0.014757 0)
(0.98978 -0.017495 0)
(0.970856 -0.00152174 0)
(0.997794 -0.00138503 0)
(1.00501 -0.00575367 0)
(1.01407 0.00187678 0)
(0.994821 0.027763 0)
(0.997448 -0.0086002 0)
(0.945164 0.00620452 0)
(0.983357 -0.0291935 0)
(0.951967 -0.0217319 0)
(0.994219 -0.0137492 0)
(1.02463 -0.0100833 0)
(1.02067 7.8229e-05 0)
(1.03242 0.0205134 0)
(1.0312 -0.000444955 0)
(0.998152 0.0427819 0)
(1.02023 -0.000869933 0)
(0.989953 0.0315273 0)
(1.00743 -0.00682956 0)
(1.00044 0.0149092 0)
(0.998131 -0.0155219 0)
(0.983067 -0.00133769 0)
(0.993669 -0.00159747 0)
(1.00722 -0.00590638 0)
(1.01007 0.00199563 0)
(0.997039 0.0278379 0)
(0.99927 -0.00801199 0)
(0.958401 0.00622631 0)
(0.982112 -0.0291198 0)
(0.960904 -0.0219073 0)
(0.987333 -0.014713 0)
(1.02147 -0.0105749 0)
(1.01935 1.83184e-05 0)
(1.02947 0.0202984 0)
(1.0272 0.000485427 0)
(1.00039 0.0424275 0)
(1.02199 0.000214941 0)
(1.0001 0.0306952 0)
(1.01463 -0.00571478 0)
(1.00782 0.014247 0)
(1.00549 -0.0131202 0)
(0.992215 -0.0011999 0)
(0.99249 -0.00175025 0)
(1.00744 -0.00604362 0)
(1.0049 0.00212251 0)
(0.997623 0.0278483 0)
(1.00077 -0.00752276 0)
(0.970665 0.0062635 0)
(0.984074 -0.0289542 0)
(0.966369 -0.0220255 0)
(0.984007 -0.0155547 0)
(1.01618 -0.0111372 0)
(1.0166 -0.000101998 0)
(1.02719 0.0200948 0)
(1.02508 0.00126276 0)
(1.00377 0.0419926 0)
(1.02452 0.000883597 0)
(1.00872 0.0297361 0)
(1.01949 -0.00475404 0)
(1.01299 0.013185 0)
(1.00883 -0.0105627 0)
(0.997763 -0.0011108 0)
(0.993613 -0.00184723 0)
(1.00627 -0.00612781 0)
(0.998794 0.00225496 0)
(0.997727 0.0277934 0)
(1.00203 -0.00714281 0)
(0.982377 0.00628087 0)
(0.987822 -0.0286666 0)
(0.970177 -0.0220764 0)
(0.98225 -0.0162627 0)
(1.00999 -0.0117117 0)
(1.01207 -0.000307577 0)
(1.02483 0.0198166 0)
(1.02377 0.0019686 0)
(1.00836 0.0413806 0)
(1.02766 0.00160009 0)
(1.0157 0.0287398 0)
(1.02349 -0.00352495 0)
(1.01692 0.0122651 0)
(1.0112 -0.00778002 0)
(1.00044 -0.00106213 0)
(0.995599 -0.00190027 0)
(1.00427 -0.00613875 0)
(0.992661 0.0023686 0)
(0.99886 0.0276543 0)
(1.00336 -0.00687369 0)
(0.993582 0.00625764 0)
(0.992246 -0.0282441 0)
(0.973549 -0.0220478 0)
(0.981332 -0.0168259 0)
(1.00377 -0.0122522 0)
(1.00635 -0.000593483 0)
(1.022 0.0194393 0)
(1.02213 0.00254342 0)
(1.01311 0.0405836 0)
(1.03022 0.00235074 0)
(1.02114 0.0276475 0)
(1.02591 -0.00212666 0)
(1.01954 0.0113673 0)
(1.01246 -0.00504839 0)
(1.00142 -0.00104081 0)
(0.997333 -0.00191922 0)
(1.00187 -0.00607533 0)
(0.987567 0.00243087 0)
(1.0018 0.0274221 0)
(1.00503 -0.0066985 0)
(1.00366 0.00618721 0)
(0.996673 -0.0276827 0)
(0.977036 -0.0219452 0)
(0.981179 -0.0172332 0)
(0.997978 -0.012729 0)
(1.00016 -0.000948936 0)
(1.01867 0.0189415 0)
(1.01981 0.00296479 0)
(1.01685 0.0396122 0)
(1.0317 0.00317074 0)
(1.02474 0.0264639 0)
(1.02689 -0.000552454 0)
(1.02076 0.0104978 0)
(1.01287 -0.00239036 0)
(1.00167 -0.00103433 0)
(0.998418 -0.00191076 0)
(0.999477 -0.0059513 0)
(0.984157 0.00241261 0)
(1.00612 0.0271001 0)
(1.0071 -0.00658627 0)
(1.01167 0.00607504 0)
(1.00071 -0.027 0)
(0.980638 -0.0217835 0)
(0.981744 -0.0174749 0)
(0.992895 -0.0131118 0)
(0.994042 -0.00135743 0)
(1.01482 0.0183154 0)
(1.01669 0.00325144 0)
(1.01884 0.0384721 0)
(1.03171 0.00405445 0)
(1.02634 0.0252358 0)
(1.02644 0.00115437 0)
(1.02058 0.00967838 0)
(1.01245 0.000107772 0)
(1.00174 -0.00103459 0)
(0.998932 -0.00187887 0)
(0.997471 -0.0057883 0)
(0.98245 0.00230375 0)
(1.01048 0.026699 0)
(1.00936 -0.00649943 0)
(1.01688 0.00592919 0)
(1.00417 -0.0262264 0)
(0.984053 -0.0215808 0)
(0.982771 -0.0175481 0)
(0.988741 -0.0133801 0)
(0.988358 -0.00179681 0)
(1.01044 0.0175767 0)
(1.01279 0.00344091 0)
(1.0187 0.0371595 0)
(1.03011 0.00501403 0)
(1.02593 0.0239893 0)
(1.02475 0.00294566 0)
(1.01922 0.00892773 0)
(1.0113 0.00243178 0)
(1.00183 -0.00103741 0)
(0.99908 -0.00182821 0)
(0.996138 -0.00560531 0)
(0.982058 0.00211813 0)
(1.01349 0.0262349 0)
(1.01152 -0.00640614 0)
(1.01918 0.00575518 0)
(1.00693 -0.0253976 0)
(0.986965 -0.0213499 0)
(0.983854 -0.0174667 0)
(0.985696 -0.0135345 0)
(0.983416 -0.00222412 0)
(1.00564 0.016756 0)
(1.00832 0.0035625 0)
(1.01643 0.0357071 0)
(1.02703 0.00603663 0)
(1.02376 0.0227256 0)
(1.02204 0.0047724 0)
(1.01703 0.00827176 0)
(1.00957 0.00452196 0)
(1.00195 -0.00104098 0)
(0.999031 -0.00176511 0)
(0.995528 -0.00541292 0)
(0.982489 0.00188514 0)
(1.01451 0.0257213 0)
(1.01332 -0.00629 0)
(1.01911 0.00555793 0)
(1.00897 -0.0245507 0)
(0.989245 -0.0210932 0)
(0.984633 -0.0172501 0)
(0.983811 -0.0135892 0)
(0.979488 -0.00259401 0)
(1.0007 0.0158884 0)
(1.00368 0.00365701 0)
(1.0125 0.0341462 0)
(1.02287 0.00707912 0)
(1.02032 0.0214433 0)
(1.01865 0.00656625 0)
(1.01444 0.0077247 0)
(1.0075 0.00626427 0)
(1.0021 -0.00104456 0)
(0.998907 -0.00169584 0)
(0.995481 -0.00521851 0)
(0.983315 0.00163766 0)
(1.01375 0.0251686 0)
(1.01457 -0.0061474 0)
(1.01763 0.00533817 0)
(1.01031 -0.0237088 0)
(0.990982 -0.0208137 0)
(0.984965 -0.0169319 0)
(0.982927 -0.0135633 0)
(0.976722 -0.00288016 0)
(0.99603 0.0150057 0)
(0.999317 0.00376455 0)
(1.00768 0.0325072 0)
(1.01815 0.00811911 0)
(1.01626 0.0201518 0)
(1.01491 0.00822885 0)
(1.01178 0.00733788 0)
(1.00539 0.0076702 0)
(1.00224 -0.00104729 0)
(0.998786 -0.00162652 0)
(0.995764 -0.0050265 0)
(0.98423 0.0014021 0)
(1.01193 0.0245862 0)
(1.01522 -0.00598287 0)
(1.01568 0.00509336 0)
(1.01105 -0.02288 0)
(0.992354 -0.0205171 0)
(0.984953 -0.0165417 0)
(0.982715 -0.0134882 0)
(0.975046 -0.00306261 0)
(0.991975 0.0141298 0)
(0.995529 0.00390728 0)
(1.00275 0.030826 0)
(1.0134 0.00913266 0)
(1.01215 0.0188886 0)
(1.0112 0.00969007 0)
(1.0093 0.00712821 0)
(1.00347 0.0087185 0)
(1.00233 -0.00104933 0)
(0.998705 -0.00156026 0)
(0.99618 -0.00483616 0)
(0.985065 0.00119293 0)
(1.00979 0.0239829 0)
(1.01535 -0.0058046 0)
(1.01385 0.00482597 0)
(1.01134 -0.0220651 0)
(0.993501 -0.020206 0)
(0.984821 -0.0160847 0)
(0.982821 -0.01339 0)
(0.974181 -0.00314252 0)
(0.988659 0.0132873 0)
(0.992382 0.00408678 0)
(0.998227 0.0291391 0)
(1.00898 0.0100873 0)
(1.00841 0.0176783 0)
(1.0078 0.0109393 0)
(1.00712 0.00708026 0)
(1.00189 0.00941003 0)
(1.00239 -0.00105052 0)
(0.998666 -0.00149965 0)
(0.9966 -0.00464386 0)
(0.985773 0.0010135 0)
(1.00778 0.0233642 0)
(1.01512 -0.00561918 0)
(1.01234 0.00453705 0)
(1.01131 -0.021258 0)
(0.994469 -0.0198826 0)
(0.984747 -0.0155694 0)
(0.983012 -0.0132793 0)
(0.973798 -0.00312981 0)
(0.98602 0.0124904 0)
(0.989815 0.00429572 0)
(0.994355 0.0274873 0)
(1.0051 0.0109452 0)
(1.00526 0.0165368 0)
(1.00487 0.0119596 0)
(1.00532 0.00719215 0)
(1.00068 0.00980997 0)
(1.00239 -0.00105074 0)
(0.998656 -0.00144541 0)
(0.996956 -0.00444718 0)
(0.98638 0.000860905 0)
(1.0061 0.0227336 0)
(1.0147 -0.00543038 0)
(1.01117 0.00422444 0)
(1.01109 -0.0204521 0)
(0.995256 -0.0195582 0)
(0.984794 -0.0150003 0)
(0.983212 -0.0131572 0)
(0.97367 -0.00303892 0)
(0.983947 0.0117462 0)
(0.987774 0.00452809 0)
(0.991211 0.025866 0)
(1.00184 0.0117063 0)
(1.00277 0.0154787 0)
(1.0025 0.0127705 0)
(1.00388 0.00742236 0)
(0.999835 0.00996772 0)
(1.00235 -0.00104968 0)
(0.998667 -0.00139779 0)
(0.997217 -0.0042438 0)
(0.986936 0.00072787 0)
(1.00478 0.0220945 0)
(1.01424 -0.00524143 0)
(1.01025 0.00389082 0)
(1.01076 -0.0196432 0)
(0.995863 -0.0192425 0)
(0.98494 -0.0143836 0)
(0.983434 -0.0130188 0)
(0.973716 -0.00289732 0)
(0.982375 0.0110674 0)
(0.986254 0.00475536 0)
(0.988816 0.0243047 0)
(0.999239 0.0123398 0)
(1.00094 0.0145244 0)
(1.00068 0.0133551 0)
(1.00277 0.00771406 0)
(0.999323 0.00993935 0)
(1.00227 -0.00104636 0)
(0.998693 -0.0013578 0)
(0.997381 -0.00403283 0)
(0.987477 0.000609391 0)
(1.0038 0.0214462 0)
(1.01378 -0.00504993 0)
(1.00951 0.0035339 0)
(1.01035 -0.0188244 0)
(0.996313 -0.0189335 0)
(0.985142 -0.0137301 0)
(0.9837 -0.0128579 0)
(0.973944 -0.0027215 0)
(0.981276 0.0104465 0)
(0.985265 0.00496131 0)
(0.987156 0.0228292 0)
(0.997261 0.0128466 0)
(0.999694 0.0136517 0)
(0.999372 0.0137317 0)
(1.00194 0.00806037 0)
(0.999087 0.00977072 0)
(1.00215 -0.00104051 0)
(0.998731 -0.00132503 0)
(0.997463 -0.00381428 0)
(0.988021 0.000501611 0)
(1.00308 0.0207872 0)
(1.01336 -0.004852 0)
(1.00891 0.00316002 0)
(1.0099 -0.0179868 0)
(0.996643 -0.0186335 0)
(0.985371 -0.0130466 0)
(0.984014 -0.0126721 0)
(0.974368 -0.00253112 0)
(0.980615 0.00988411 0)
(0.984778 0.00514312 0)
(0.98616 0.0214209 0)
(0.995831 0.0132538 0)
(0.998921 0.0128598 0)
(0.99849 0.0139407 0)
(1.00131 0.00845198 0)
(0.99906 0.00950492 0)
(1.00201 -0.00103154 0)
(0.998778 -0.00129985 0)
(0.997485 -0.00358661 0)
(0.988568 0.000397721 0)
(1.00255 0.0201175 0)
(1.01297 -0.00464556 0)
(1.00839 0.00277445 0)
(1.00942 -0.0171288 0)
(0.996893 -0.0183442 0)
(0.985615 -0.0123389 0)
(0.984365 -0.0124599 0)
(0.974976 -0.00235276 0)
(0.98032 0.00939857 0)
(0.984708 0.00526986 0)
(0.985707 0.0200791 0)
(0.99484 0.0135495 0)
(0.998495 0.0121707 0)
(0.997939 0.0139944 0)
(1.00081 0.00887835 0)
(0.999174 0.00920157 0)
(1.00186 -0.001019 0)
(0.998825 -0.00128187 0)
(0.99747 -0.00335137 0)
(0.989113 0.000295189 0)
(1.00216 0.0194366 0)
(1.0126 -0.00442805 0)
(1.00794 0.00237039 0)
(1.00893 -0.016251 0)
(0.997097 -0.0180577 0)
(0.98587 -0.011625 0)
(0.984738 -0.0122107 0)
(0.975733 -0.00220535 0)
(0.980297 0.0089868 0)
(0.984938 0.00532914 0)
(0.985652 0.018808 0)
(0.994162 0.0137531 0)
(0.998297 0.0115499 0)
(0.997632 0.0139329 0)
(1.00038 0.00936259 0)
(0.999363 0.00890549 0)
(1.00171 -0.0010026 0)
(0.998866 -0.00127129 0)
(0.997442 -0.00310812 0)
(0.989651 0.000192354 0)
(1.00185 0.0187439 0)
(1.01222 -0.00419891 0)
(1.00753 0.00195091 0)
(1.00842 -0.0153546 0)
(0.997281 -0.0177689 0)
(0.986135 -0.0109185 0)
(0.985123 -0.0119169 0)
(0.976594 -0.00210849 0)
(0.980455 0.0086352 0)
(0.985352 0.0053407 0)
(0.985863 0.0175891 0)
(0.993682 0.0138946 0)
(0.998227 0.0110009 0)
(0.997498 0.0137374 0)
(0.999986 0.00987519 0)
(0.999568 0.00861693 0)
(1.00158 -0.000981714 0)
(0.998894 -0.00126912 0)
(0.997415 -0.00285729 0)
(0.990176 9.02991e-05 0)
(1.00159 0.0180361 0)
(1.01183 -0.0039522 0)
(1.00714 0.0015185 0)
(1.0079 -0.0144417 0)
(0.997466 -0.0174757 0)
(0.986406 -0.0102228 0)
(0.985512 -0.0115648 0)
(0.977519 -0.00207023 0)
(0.980724 0.00834406 0)
(0.985853 0.00532454 0)
(0.98624 0.0164004 0)
(0.993316 0.0139841 0)
(0.99821 0.0105397 0)
(0.997485 0.0133903 0)
(0.999603 0.0103847 0)
(0.999742 0.00839457 0)
(1.00147 -0.000956495 0)
(0.998906 -0.00127455 0)
(0.997401 -0.00259999 0)
(0.990686 -1.07963e-05 0)
(1.00137 0.0173139 0)
(1.01141 -0.00368728 0)
(1.00678 0.00107542 0)
(1.00737 -0.0135169 0)
(0.99766 -0.0171674 0)
(0.986686 -0.00956082 0)
(0.985901 -0.0111412 0)
(0.978482 -0.00209695 0)
(0.981059 0.00810421 0)
(0.986372 0.00530629 0)
(0.986719 0.0152417 0)
(0.993016 0.0140226 0)
(0.998197 0.0101865 0)
(0.99756 0.0129145 0)
(0.999235 0.0108524 0)
(0.999849 0.0083056 0)
(1.00138 -0.000926289 0)
(0.998905 -0.00128769 0)
(0.9974 -0.00234016 0)
(0.991183 -0.000108122 0)
(1.00116 0.0165793 0)
(1.01097 -0.00340642 0)
(1.00643 0.000628302 0)
(1.00682 -0.0125935 0)
(0.997866 -0.0168355 0)
(0.986976 -0.00893708 0)
(0.986283 -0.010659 0)
(0.979466 -0.00219145 0)
(0.981437 0.00788658 0)
(0.986871 0.00530025 0)
(0.987262 0.0141047 0)
(0.99276 0.0140147 0)
(0.998158 0.00994722 0)
(0.997701 0.0123341 0)
(0.998897 0.0112431 0)
(0.999867 0.0083597 0)
(1.00131 -0.000891878 0)
(0.998894 -0.00130764 0)
(0.997412 -0.0020795 0)
(0.991668 -0.000197287 0)
(1.00097 0.015828 0)
(1.0105 -0.00310342 0)
(1.0061 0.000172703 0)
(1.00625 -0.0116697 0)
(0.99808 -0.0164782 0)
(0.987283 -0.00836475 0)
(0.986652 -0.0100996 0)
(0.980463 -0.00233338 0)
(0.981853 0.00768156 0)
(0.987329 0.00531017 0)
(0.987853 0.0129812 0)
(0.99255 0.0139389 0)
(0.998074 0.00981712 0)
(0.997892 0.0116797 0)
(0.99861 0.0115002 0)
(0.999785 0.00855425 0)
(1.00125 -0.000853001 0)
(0.99888 -0.00133273 0)
(0.997433 -0.00181956 0)
(0.992147 -0.000278034 0)
(1.0008 0.0150599 0)
(1.01002 -0.00278228 0)
(1.00579 -0.000283384 0)
(1.00568 -0.0107586 0)
(0.998296 -0.0160859 0)
(0.987613 -0.0078606 0)
(0.987005 -0.0094545 0)
(0.981467 -0.00250823 0)
(0.982308 0.00746839 0)
(0.987735 0.0053577 0)
(0.988477 0.0118756 0)
(0.992395 0.0137639 0)
(0.99794 0.00979648 0)
(0.998114 0.0110049 0)
(0.998398 0.0115598 0)
(0.999612 0.00887128 0)
(1.0012 -0.000809931 0)
(0.998868 -0.00136154 0)
(0.997459 -0.0015626 0)
(0.992618 -0.00034692 0)
(1.00065 0.0142766 0)
(1.00953 -0.00244435 0)
(1.0055 -0.000729594 0)
(1.00511 -0.00987673 0)
(0.998506 -0.01564 0)
(0.987973 -0.00742923 0)
(0.987337 -0.00874296 0)
(0.982471 -0.00270218 0)
(0.982809 0.00721621 0)
(0.988089 0.005458 0)
(0.989121 0.0108254 0)
(0.992316 0.0134778 0)
(0.997756 0.00986092 0)
(0.998339 0.0103701 0)
(0.998281 0.0114255 0)
(0.999377 0.0092332 0)
(1.00116 -0.000762756 0)
(0.998861 -0.00139537 0)
(0.997487 -0.00131174 0)
(0.993083 -0.000400939 0)
(1.0005 0.0134817 0)
(1.00902 -0.00209402 0)
(1.00523 -0.00116385 0)
(1.00455 -0.00902401 0)
(0.998704 -0.0151378 0)
(0.988366 -0.00707019 0)
(0.98765 -0.00797649 0)
(0.983467 -0.00288236 0)
(0.983363 0.00692306 0)
(0.988399 0.00561507 0)
(0.989771 0.00985127 0)
(0.992319 0.0130725 0)
(0.997537 0.00996766 0)
(0.998547 0.00980893 0)
(0.998259 0.0111131 0)
(0.99911 0.00957536 0)
(1.00111 -0.000711734 0)
(0.998861 -0.00143097 0)
(0.997517 -0.00107506 0)
(0.993539 -0.000435539 0)
(1.00038 0.0126741 0)
(1.00851 -0.00173767 0)
(1.00497 -0.00157893 0)
(1.004 -0.00821075 0)
(0.998884 -0.0145757 0)
(0.988796 -0.00679385 0)
(0.987945 -0.00717655 0)
(0.984444 -0.00302498 0)
(0.983974 0.00657498 0)
(0.988669 0.0058086 0)
(0.990408 0.00896531 0)
(0.992416 0.0125577 0)
(0.997296 0.0100969 0)
(0.998713 0.0093612 0)
(0.998336 0.0106665 0)
(0.998862 0.00982626 0)
(1.00106 -0.000658043 0)
(0.998869 -0.00146502 0)
(0.997549 -0.000850957 0)
(0.993984 -0.000454871 0)
(1.00027 0.0118556 0)
(1.00799 -0.00137781 0)
(1.00473 -0.00196525 0)
(1.00347 -0.00744712 0)
(0.99904 -0.0139503 0)
(0.989263 -0.00658909 0)
(0.988229 -0.00637024 0)
(0.98539 -0.00310829 0)
(0.984645 0.00615339 0)
(0.988913 0.00601604 0)
(0.991016 0.0082215 0)
(0.992607 0.0119214 0)
(0.997059 0.0101899 0)
(0.998822 0.00905088 0)
(0.998483 0.0101552 0)
(0.998664 0.0099166 0)
(1.00101 -0.000601489 0)
(0.998884 -0.00149929 0)
(0.997583 -0.000639861 0)
(0.994417 -0.000457706 0)
(1.00018 0.0110316 0)
(1.00746 -0.00101986 0)
(1.0045 -0.00231164 0)
(1.00296 -0.00674571 0)
(0.999171 -0.0132585 0)
(0.989766 -0.00643494 0)
(0.988509 -0.00557449 0)
(0.986294 -0.00311423 0)
(0.985373 0.00566908 0)
(0.989146 0.00622161 0)
(0.991574 0.00762428 0)
(0.99288 0.0112013 0)
(0.996854 0.0102002 0)
(0.998869 0.00884794 0)
(0.998675 0.00962187 0)
(0.998547 0.00983496 0)
(1.00096 -0.000542037 0)
(0.998907 -0.00153131 0)
(0.997621 -0.000445252 0)
(0.994834 -0.000440147 0)
(1.00011 0.0102057 0)
(1.00694 -0.000668056 0)
(1.00427 -0.00261443 0)
(1.00248 -0.00611132 0)
(0.999273 -0.0125032 0)
(0.9903 -0.00632435 0)
(0.988793 -0.0048158 0)
(0.987146 -0.00303262 0)
(0.986154 0.00514475 0)
(0.989385 0.00638896 0)
(0.992074 0.00717754 0)
(0.99322 0.0104494 0)
(0.996699 0.0101235 0)
(0.998856 0.00873751 0)
(0.998878 0.00912401 0)
(0.998523 0.00959182 0)
(1.00091 -0.000481152 0)
(0.998936 -0.00155725 0)
(0.997664 -0.000268548 0)
(0.995233 -0.000405458 0)
(1.00005 0.00938433 0)
(1.00641 -0.000330119 0)
(1.00405 -0.00286497 0)
(1.00204 -0.00554505 0)
(0.999348 -0.0116968 0)
(0.990861 -0.00622982 0)
(0.989091 -0.00411846 0)
(0.98794 -0.00284928 0)
(0.986978 0.00458923 0)
(0.989647 0.00648972 0)
(0.992508 0.00686945 0)
(0.993605 0.00968867 0)
(0.996614 0.00993578 0)
(0.998797 0.00866639 0)
(0.99906 0.00871533 0)
(0.998585 0.00923617 0)
(1.00086 -0.000420459 0)
(0.998971 -0.00157532 0)
(0.997712 -0.000110829 0)
(0.995612 -0.000353305 0)
(1.00002 0.00856961 0)
(1.00588 -1.20612e-05 0)
(1.00384 -0.00305153 0)
(1.00163 -0.0050504 0)
(0.999395 -0.0108479 0)
(0.991442 -0.00614542 0)
(0.989413 -0.00348979 0)
(0.988672 -0.0025817 0)
(0.987832 0.00402923 0)
(0.989948 0.00650666 0)
(0.992879 0.00666526 0)
(0.994013 0.00896812 0)
(0.996605 0.00964076 0)
(0.998721 0.00859231 0)
(0.999207 0.00841091 0)
(0.998706 0.00883768 0)
(1.00081 -0.00035868 0)
(0.999011 -0.00158922 0)
(0.997766 3.19694e-05 0)
(0.99597 -0.000286912 0)
(0.999996 0.00776466 0)
(1.00536 0.00027324 0)
(1.00362 -0.00317551 0)
(1.00126 -0.00462972 0)
(0.999416 -0.00997422 0)
(0.992034 -0.00604462 0)
(0.989766 -0.00294522 0)
(0.989341 -0.00223581 0)
(0.988701 0.00350124 0)
(0.9903 0.00642807 0)
(0.993197 0.00654653 0)
(0.994425 0.00832754 0)
(0.996671 0.00926636 0)
(0.998648 0.00849704 0)
(0.999312 0.00817623 0)
(0.998856 0.00845509 0)
(1.00076 -0.000296463 0)
(0.999057 -0.00159984 0)
(0.997827 0.000157973 0)
(0.996304 -0.00020716 0)
(0.999991 0.00697705 0)
(1.00484 0.000526143 0)
(1.00341 -0.00323185 0)
(1.00094 -0.00427847 0)
(0.999416 -0.0090945 0)
(0.992628 -0.00590514 0)
(0.990157 -0.00249089 0)
(0.989952 -0.00183365 0)
(0.989567 0.0030265 0)
(0.99071 0.00625393 0)
(0.993477 0.00648041 0)
(0.994819 0.00778108 0)
(0.996805 0.00882993 0)
(0.9986 0.00835175 0)
(0.999382 0.00797007 0)
(0.999003 0.00812672 0)
(1.00071 -0.000236437 0)
(0.999108 -0.00159938 0)
(0.997897 0.000263037 0)
(0.996614 -0.000115178 0)
(1 0.00621245 0)
(1.00435 0.000738201 0)
(1.00319 -0.00321654 0)
(1.00066 -0.00398687 0)
(0.9994 -0.0082272 0)
(0.993217 -0.00573187 0)
(0.990588 -0.00211554 0)
(0.990512 -0.00140266 0)
(0.990416 0.0026309 0)
(0.991181 0.00599125 0)
(0.993735 0.00642868 0)
(0.995185 0.00733061 0)
(0.996992 0.00837046 0)
(0.998588 0.00814961 0)
(0.999438 0.0077732 0)
(0.999141 0.00785631 0)
(1.00066 -0.000179331 0)
(0.999164 -0.00158847 0)
(0.997975 0.000348055 0)
(0.996899 -9.65804e-06 0)
(1.00003 0.00548305 0)
(1.00387 0.000904848 0)
(1.00297 -0.00312267 0)
(1.00042 -0.00373965 0)
(0.999375 -0.0073909 0)
(0.993792 -0.00550705 0)
(0.991062 -0.00180843 0)
(0.991031 -0.000959133 0)
(0.99123 0.00232617 0)
(0.991708 0.00565492 0)
(0.993993 0.00635033 0)
(0.995518 0.00696739 0)
(0.997216 0.00789823 0)
(0.998617 0.00790405 0)
(0.999493 0.00757779 0)
(0.999265 0.00760659 0)
(1.00062 -0.000125327 0)
(0.999223 -0.00156328 0)
(0.998063 0.000402883 0)
(0.997159 0.000116396 0)
(1.00006 0.00479531 0)
(1.00342 0.00101997 0)
(1.00274 -0.00296088 0)
(1.00022 -0.00352284 0)
(0.999347 -0.00659818 0)
(0.994351 -0.00522702 0)
(0.991577 -0.00155786 0)
(0.99152 -0.000527013 0)
(0.991999 0.00211557 0)
(0.99228 0.00527471 0)
(0.994264 0.0062338 0)
(0.995814 0.00667124 0)
(0.997464 0.00743955 0)
(0.998695 0.00761519 0)
(0.999554 0.00737114 0)
(0.999385 0.00735281 0)
(1.00057 -7.76444e-05 0)
(0.999283 -0.00151861 0)
(0.998161 0.000426222 0)
(0.997396 0.000258205 0)
(1.0001 0.00415017 0)
(1.003 0.00106214 0)
(1.00251 -0.00275787 0)
(1.00005 -0.00330858 0)
(0.999324 -0.00585455 0)
(0.994888 -0.00490249 0)
(0.99213 -0.00135893 0)
(0.991989 -0.000114063 0)
(0.992713 0.0019963 0)
(0.992885 0.00487013 0)
(0.994564 0.00605576 0)
(0.996081 0.00642473 0)
(0.997718 0.00701473 0)
(0.998815 0.00728231 0)
(0.999629 0.00715079 0)
(0.999504 0.00710317 0)
(1.00052 -3.7918e-05 0)
(0.999345 -0.00144886 0)
(0.99827 0.000405056 0)
(0.997606 0.000405575 0)
(1.00015 0.00357899 0)
(1.00262 0.00105906 0)
(1.00228 -0.00251687 0)
(0.999917 -0.0030869 0)
(0.999302 -0.00516258 0)
(0.995397 -0.00452972 0)
(0.992715 -0.00120645 0)
(0.992455 0.000255631 0)
(0.993369 0.00194534 0)
(0.993508 0.00447701 0)
(0.994907 0.00581718 0)
(0.996333 0.00620028 0)
(0.997968 0.00663714 0)
(0.998977 0.00692842 0)
(0.999727 0.00690639 0)
(0.999624 0.00686584 0)
(1.00048 -3.53402e-06 0)
(0.999403 -0.00136137 0)
(0.998386 0.000355459 0)
(0.9978 0.000555516 0)
(1.00019 0.00309123 0)
(1.00227 0.00102702 0)
(1.00206 -0.00225747 0)
(0.999808 -0.00284737 0)
(0.999293 -0.00451786 0)
(0.995877 -0.00413258 0)
(0.993322 -0.00108109 0)
(0.992924 0.000558637 0)
(0.993969 0.0019566 0)
(0.994131 0.00412384 0)
(0.995288 0.00553541 0)
(0.996583 0.00596594 0)
(0.998207 0.00630501 0)
(0.999162 0.00656947 0)
(0.999857 0.00663196 0)
(0.999757 0.00663561 0)
(1.00044 2.28313e-05 0)
(0.999457 -0.00125714 0)
(0.998513 0.000297913 0)
(0.997977 0.000677268 0)
(1.00022 0.00270315 0)
(1.00196 0.00096786 0)
(1.00185 -0.00200188 0)
(0.999726 -0.0025992 0)
(0.999296 -0.00392194 0)
(0.996329 -0.00371943 0)
(0.993945 -0.000969978 0)
(0.993403 0.000789554 0)
(0.994517 0.00200334 0)
(0.994734 0.00381066 0)
(0.995699 0.00522052 0)
(0.996841 0.00572119 0)
(0.998436 0.0059999 0)
(0.999365 0.00622578 0)
(1.00002 0.00632446 0)
(0.99991 0.00637395 0)
(1.0004 4.3239e-05 0)
(0.999504 -0.00113736 0)
(0.998643 0.00023165 0)
(0.998146 0.000760733 0)
(1.00025 0.00240181 0)
(1.00167 0.000887633 0)
(1.00165 -0.00176604 0)
(0.999667 -0.00235252 0)
(0.999313 -0.00336122 0)
(0.99675 -0.00328592 0)
(0.994571 -0.000867346 0)
(0.993896 0.000957443 0)
(0.995023 0.00205814 0)
(0.995313 0.00354996 0)
(0.996138 0.004907 0)
(0.997117 0.00547853 0)
(0.998662 0.00572272 0)
(0.99957 0.00590647 0)
(1.0002 0.00601574 0)
(1.00009 0.00608066 0)
(1.00036 5.88646e-05 0)
(0.999545 -0.0010132 0)
(0.998777 0.000171462 0)
(0.998306 0.000804831 0)
(1.00027 0.00215263 0)
(1.00141 0.000812518 0)
(1.00147 -0.00153454 0)
(0.999634 -0.00210245 0)
(0.999344 -0.00283329 0)
(0.997138 -0.00284403 0)
(0.99519 -0.000761285 0)
(0.994405 0.00106455 0)
(0.995497 0.00211529 0)
(0.995861 0.00334045 0)
(0.996594 0.00458998 0)
(0.997412 0.00522895 0)
(0.998885 0.00545391 0)
(0.999781 0.00559387 0)
(1.0004 0.00572812 0)
(1.0003 0.00578278 0)
(1.00032 7.0711e-05 0)
(0.999581 -0.000888584 0)
(0.998907 0.000125939 0)
(0.998461 0.00079536 0)
(1.00028 0.00194883 0)
(1.00117 0.000774295 0)
(1.0013 -0.00129603 0)
(0.999623 -0.00186046 0)
(0.999393 -0.00235693 0)
(0.997493 -0.00239301 0)
(0.99579 -0.000638834 0)
(0.994927 0.00111985 0)
(0.995952 0.00215136 0)
(0.996373 0.00316771 0)
(0.99706 0.00428538 0)
(0.997729 0.0049673 0)
(0.999105 0.00520124 0)
(0.999998 0.00529969 0)
(1.0006 0.00543483 0)
(1.00051 0.00549856 0)
(1.00029 8.23984e-05 0)
(0.99961 -0.000774388 0)
(0.999032 0.000101712 0)
(0.99861 0.000755272 0)
(1.0003 0.00176631 0)
(1.00096 0.000768672 0)
(1.00114 -0.00105651 0)
(0.999629 -0.00161403 0)
(0.999462 -0.00193593 0)
(0.997819 -0.00194915 0)
(0.996359 -0.000496174 0)
(0.995455 0.00115089 0)
(0.996394 0.00216031 0)
(0.996855 0.00302139 0)
(0.997525 0.00400436 0)
(0.998067 0.00468357 0)
(0.999331 0.00497012 0)
(1.00021 0.00502723 0)
(1.00082 0.00513178 0)
(1.00072 0.00523925 0)
(1.00026 9.25197e-05 0)
(0.999636 -0.000672072 0)
(0.99915 9.66822e-05 0)
(0.998752 0.000697488 0)
(1.00032 0.00159601 0)
(1.00078 0.000785903 0)
(1.001 -0.000805365 0)
(0.999647 -0.00136511 0)
(0.999548 -0.00156392 0)
(0.998123 -0.00153466 0)
(0.996894 -0.000325862 0)
(0.99598 0.00117281 0)
(0.996826 0.00214893 0)
(0.997307 0.00289069 0)
(0.997978 0.00374618 0)
(0.998429 0.00440063 0)
(0.99957 0.00472729 0)
(1.0004 0.00478451 0)
(1.00105 0.00483591 0)
(1.00094 0.00497663 0)
(1.00023 0.000105797 0)
(0.999659 -0.000587024 0)
(0.99926 0.000107515 0)
(0.998888 0.000634894 0)
(1.00036 0.00142404 0)
(1.00062 0.000813304 0)
(1.00087 -0.000537722 0)
(0.999671 -0.00111381 0)
(0.999651 -0.00123653 0)
(0.998412 -0.00116033 0)
(0.997392 -0.000141368 0)
(0.996491 0.00119183 0)
(0.997247 0.00212836 0)
(0.997734 0.00277167 0)
(0.998419 0.00350667 0)
(0.998799 0.00413227 0)
(0.999826 0.00446821 0)
(1.0006 0.0045661 0)
(1.00127 0.0045642 0)
(1.00117 0.00469463 0)
(1.0002 0.000120338 0)
(0.999681 -0.000517471 0)
(0.999364 0.000135126 0)
(0.999013 0.000585395 0)
(1.0004 0.00125069 0)
(1.0005 0.000836863 0)
(1.00075 -0.00026159 0)
(0.999694 -0.000848012 0)
(0.999765 -0.000949217 0)
(0.998689 -0.000829068 0)
(0.997858 4.94116e-05 0)
(0.996988 0.0012276 0)
(0.997659 0.00209629 0)
(0.998133 0.00266683 0)
(0.998844 0.00328067 0)
(0.999177 0.00386844 0)
(1.0001 0.00420809 0)
(1.00079 0.00433966 0)
(1.00147 0.00432161 0)
(1.0014 0.00440533 0)
(1.00018 0.000137275 0)
(0.999704 -0.000455197 0)
(0.999463 0.000169327 0)
(0.999126 0.000555654 0)
(1.00045 0.00109102 0)
(1.00042 0.000848732 0)
(1.00065 -1.32526e-06 0)
(0.999713 -0.000572353 0)
(0.999883 -0.000689588 0)
(0.998962 -0.000550279 0)
(0.998298 0.000236262 0)
(0.997459 0.00127939 0)
(0.998055 0.00206762 0)
(0.998508 0.00257431 0)
(0.999246 0.00308114 0)
(0.999554 0.00360604 0)
(1.00039 0.00394552 0)
(1.001 0.00410016 0)
(1.00166 0.0040997 0)
(1.00163 0.00413127 0)
(1.00015 0.000156293 0)
(0.999728 -0.000398292 0)
(0.999561 0.000204341 0)
(0.999227 0.000556188 0)
(1.00051 0.000951182 0)
(1.00037 0.00083291 0)
(1.00057 0.000237586 0)
(0.999728 -0.000287377 0)
(0.999997 -0.000438251 0)
(0.999228 -0.00031906 0)
(0.998719 0.000391488 0)
(0.997914 0.00132593 0)
(0.998436 0.00205203 0)
(0.998857 0.00249061 0)
(0.999619 0.00290445 0)
(0.999923 0.00335597 0)
(1.00069 0.00368771 0)
(1.00122 0.00385726 0)
(1.00184 0.00388643 0)
(1.00185 0.00389035 0)
(1.00013 0.000175868 0)
(0.999752 -0.00034361 0)
(0.99966 0.000239626 0)
(0.999318 0.000587741 0)
(1.00057 0.000837805 0)
(1.00037 0.000785582 0)
(1.00053 0.000445242 0)
(0.999742 -8.37322e-06 0)
(1.0001 -0.000192787 0)
(0.999484 -0.00011158 0)
(0.999124 0.000512548 0)
(0.998354 0.00136573 0)
(0.998804 0.00203504 0)
(0.999181 0.00242215 0)
(0.999964 0.00274764 0)
(1.00028 0.00312646 0)
(1.001 0.00342918 0)
(1.00146 0.00360433 0)
(1.00202 0.00365891 0)
(1.00204 0.00367054 0)
(1.00012 0.000197257 0)
(0.999778 -0.000283928 0)
(0.999763 0.000263229 0)
(0.9994 0.000637047 0)
(1.00062 0.000773199 0)
(1.0004 0.000717469 0)
(1.00052 0.000605356 0)
(0.99976 0.000259157 0)
(1.0002 5.1797e-05 0)
(0.999723 7.73521e-05 0)
(0.999514 0.000602414 0)
(0.998785 0.00138456 0)
(0.999163 0.00201146 0)
(0.999482 0.00237134 0)
(1.00028 0.00261778 0)
(1.00061 0.00291442 0)
(1.0013 0.00318024 0)
(1.0017 0.00335359 0)
(1.00222 0.00341733 0)
(1.00222 0.00345608 0)
(1.0001 0.000212859 0)
(0.999802 -0.000205902 0)
(0.999871 0.00028264 0)
(0.999482 0.000686314 0)
(1.00065 0.000758008 0)
(1.00045 0.000641231 0)
(1.00056 0.000698762 0)
(0.99979 0.000513058 0)
(1.00027 0.000301711 0)
(0.999937 0.000258332 0)
(0.999882 0.000676714 0)
(0.999209 0.00137117 0)
(0.999523 0.0019703 0)
(0.99977 0.00231561 0)
(1.00055 0.00251321 0)
(1.00091 0.00272924 0)
(1.00159 0.00294441 0)
(1.00195 0.00311222 0)
(1.00244 0.0031681 0)
(1.0024 0.00322765 0)
(1.00009 0.000224979 0)
(0.999824 -0.000116633 0)
(0.999978 0.000303961 0)
(0.999563 0.000724143 0)
(1.00068 0.00078545 0)
(1.00051 0.000586688 0)
(1.00064 0.00073058 0)
(0.999848 0.000720185 0)
(1.00034 0.000547206 0)
(1.00012 0.000439403 0)
(1.00022 0.000743929 0)
(0.99962 0.00133955 0)
(0.999885 0.0019056 0)
(1.00005 0.00224651 0)
(1.00081 0.00242305 0)
(1.00118 0.00257777 0)
(1.00186 0.00272187 0)
(1.00219 0.00287586 0)
(1.00265 0.0029266 0)
(1.00261 0.00298236 0)
(1.00008 0.000235414 0)
(0.999842 -2.68424e-05 0)
(1.00008 0.000325675 0)
(0.999651 0.000749927 0)
(1.0007 0.000845044 0)
(1.00057 0.000577649 0)
(1.00076 0.000728458 0)
(0.999942 0.000866422 0)
(1.00041 0.000776762 0)
(1.00028 0.000630939 0)
(1.00053 0.000813923 0)
(1.00001 0.00130573 0)
(1.00025 0.0018204 0)
(1.00034 0.00216582 0)
(1.00105 0.00232434 0)
(1.00142 0.00244825 0)
(1.00211 0.00252808 0)
(1.00243 0.00264515 0)
(1.00286 0.00270236 0)
(1.00282 0.00273544 0)
(1.00007 0.000240358 0)
(0.999857 6.52108e-05 0)
(1.00018 0.000353485 0)
(0.999745 0.000758954 0)
(1.00071 0.000911948 0)
(1.00061 0.000617425 0)
(1.0009 0.000715255 0)
(1.00008 0.000948911 0)
(1.00049 0.000969276 0)
(1.00041 0.000825132 0)
(1.00079 0.000900045 0)
(1.00038 0.00127428 0)
(1.00061 0.00172037 0)
(1.00063 0.00206177 0)
(1.00128 0.00221603 0)
(1.00163 0.00232073 0)
(1.00233 0.00236866 0)
(1.00265 0.00242642 0)
(1.00306 0.0024818 0)
(1.00301 0.00250342 0)
(1.00007 0.000242178 0)
(0.999867 0.000153591 0)
(1.00027 0.0003898 0)
(0.999846 0.00075506 0)
(1.00073 0.000972081 0)
(1.00064 0.000697691 0)
(1.00103 0.000719132 0)
(1.00024 0.000981993 0)