/*--------------------------------*- C++ -*----------------------------------*\
| =========                 |                                                 |
| \\      /  F ield         | OpenFOAM: The Open Source CFD Toolbox           |
|  \\    /   O peration     | Version:  3.0.1                                 |
|   \\  /    A nd           | Web:      www.OpenFOAM.org                      |
|    \\/     M anipulation  |                                                 |
\*---------------------------------------------------------------------------*/
FoamFile
{
    version     2.0;
    format      ascii;
    class       volScalarField;
    location    "0.3";
    object      p;
}
// * * * * * * * * * * * * * * * * * * * * * * * * * * * * * * * * * * * * * //

dimensions      [0 2 -2 0 0 0 0];

internalField   nonuniform List<scalar> 
9600
(
2.94079e-09
-0.000487373
0.000388047
6.50537e-05
-9.1722e-05
0.000931343
-0.00135386
-0.00137939
-0.000496205
0.000582843
4.32973e-05
0.0002539
-0.000670017
0.000807937
0.000428635
0.0016943
0.00265453
0.00489078
0.00618346
0.0110986
-2.27556e-07
-0.000487641
0.000388382
6.08554e-05
-8.27953e-05
0.000905671
-0.00134142
-0.00136814
-0.000498623
0.000590358
1.72985e-05
0.000246827
-0.000637928
0.000805939
0.000445378
0.00168912
0.00267611
0.00485023
0.00621873
0.0104945
-7.69871e-07
-0.000488185
0.000387823
5.57918e-05
-7.44133e-05
0.000874489
-0.00132085
-0.00135106
-0.000502258
0.000594363
-4.52665e-06
0.00024039
-0.000606901
0.000804214
0.000462476
0.00168192
0.0026988
0.00480357
0.00620639
0.00991872
-1.7215e-06
-0.000489251
0.000386193
4.95501e-05
-6.96128e-05
0.000840819
-0.0012973
-0.00133037
-0.000507687
0.000592908
-2.25133e-05
0.000236554
-0.000579411
0.000802222
0.000478189
0.00167043
0.0027232
0.00473956
0.00617627
0.00938089
-3.18092e-06
-0.000490958
0.000383657
4.15777e-05
-6.63368e-05
0.000804943
-0.00127095
-0.00130687
-0.000515775
0.000586848
-3.69593e-05
0.000231965
-0.000551335
0.000797784
0.000493149
0.00165451
0.00274807
0.00466549
0.00612645
0.00888316
-5.1691e-06
-0.000493264
0.00038044
3.20774e-05
-6.35297e-05
0.000767365
-0.00124218
-0.00128221
-0.000526241
0.000569223
-4.98044e-05
0.000225932
-0.000522907
0.00079041
0.000509464
0.00163444
0.00277336
0.00458275
0.00605544
0.00841537
-7.62793e-06
-0.000496049
0.000376792
2.13927e-05
-6.09909e-05
0.000728737
-0.00121185
-0.00125754
-0.000538034
0.000556223
-6.23141e-05
0.000219331
-0.000493088
0.000780477
0.000528115
0.00161067
0.0027984
0.0044927
0.00596088
0.00797318
-1.04556e-05
-0.000499181
0.000372888
9.81373e-06
-5.85635e-05
0.00068921
-0.00118056
-0.00123317
-0.000550183
0.000545536
-7.48341e-05
0.000212294
-0.000461402
0.000768251
0.000549253
0.00158357
0.00282141
0.00439674
0.00584095
0.00755393
-1.35535e-05
-0.000502569
0.000368795
-2.439e-06
-5.61334e-05
0.00064871
-0.0011486
-0.00120903
-0.000562191
0.000534651
-8.72624e-05
0.000204424
-0.000427802
0.000753781
0.000572434
0.0015534
0.00284058
0.00429678
0.00569497
0.00715475
-1.68593e-05
-0.000506169
0.000364514
-1.52469e-05
-5.36601e-05
0.000607211
-0.00111608
-0.001185
-0.000573894
0.000523514
-9.93998e-05
0.000195297
-0.000392495
0.000737107
0.000601526
0.00152064
0.00285349
0.00419432
0.00552348
0.0067723
-2.03512e-05
-0.000509969
0.000360017
-2.85755e-05
-5.11169e-05
0.000564768
-0.00108311
-0.00116099
-0.000585304
0.0005121
-0.000111101
0.000184589
-0.000355756
0.000718251
0.000625931
0.00148632
0.00285784
0.00409073
0.00532823
0.0064028
-2.40317e-05
-0.000513975
0.000355266
-4.24266e-05
-4.84828e-05
0.00052147
-0.00104985
-0.00113693
-0.000596522
0.000500384
-0.000122332
0.000172138
-0.000317888
0.000697461
0.000649756
0.00145141
0.00285184
0.00398589
0.0051121
0.00604237
-2.79109e-05
-0.000518195
0.000350222
-5.68073e-05
-4.5759e-05
0.000477438
-0.00101645
-0.00111273
-0.000607694
0.000488372
-0.00013312
0.00015789
-0.00027931
0.000675212
0.000672249
0.00141637
0.00283414
0.00387913
0.00487879
0.00568766
-3.19977e-05
-0.000522644
0.000344843
-7.17154e-05
-4.29714e-05
0.000432814
-0.000983084
-0.0010883
-0.000618988
0.000476137
-0.000143542
0.000141882
-0.000240428
0.000651908
0.000692643
0.00138145
0.00280428
0.0037689
0.00463203
0.00533628
-3.62976e-05
-0.000527341
0.000339087
-8.71337e-05
-4.0169e-05
0.000387758
-0.00094997
-0.00106356
-0.000630583
0.000463808
-0.000153739
0.000124222
-0.000201608
0.000627858
0.000710164
0.00134648
0.00276267
0.00365366
0.00437484
0.0049868
-4.08133e-05
-0.00053231
0.000332911
-0.000103029
-3.74239e-05
0.000342446
-0.000917357
-0.00103838
-0.000642676
0.000451563
-0.000163862
0.000105009
-0.000163251
0.000603295
0.000724298
0.00131082
0.00271005
0.00353247
0.00410937
0.0046383
-4.55452e-05
-0.000537579
0.00032627
-0.000119356
-3.48345e-05
0.000297083
-0.000885528
-0.00101257
-0.000655513
0.000439609
-0.000174
8.43105e-05
-0.000125654
0.000578232
0.000734923
0.0012734
0.00264659
0.00340501
0.0038375
0.00428984
-5.04905e-05
-0.000543179
0.00031911
-0.000136049
-3.25294e-05
0.000251904
-0.000854793
-0.000985935
-0.000669354
0.000428059
-0.000184149
6.2094e-05
-8.89177e-05
0.000552363
0.00074221
0.00123327
0.00257175
0.00327222
0.0035614
0.00394017
-5.56446e-05
-0.000549144
0.000311367
-0.000153033
-3.06576e-05
0.000207179
-0.000825526
-0.000958224
-0.000684407
0.000416958
-0.000194216
3.81488e-05
-5.28883e-05
0.000525117
0.000746227
0.00119011
0.00248463
0.00313562
0.00328403
0.00358782
-6.10015e-05
-0.000555508
0.000302965
-0.000170215
-2.93961e-05
0.000163221
-0.000798152
-0.000929205
-0.000700821
0.000406298
-0.000203973
1.20518e-05
-1.71312e-05
0.000495753
0.000746515
0.00114432
0.00238382
0.00299572
0.00300907
0.00323198
-6.65532e-05
-0.000562305
0.000293808
-0.000187476
-2.89671e-05
0.000120402
-0.000773116
-0.000898703
-0.000718648
0.000395924
-0.000213022
-1.68889e-05
1.8973e-05
0.000463626
0.000741944
0.00109766
0.00226783
0.00285092
0.00274094
0.00287328
-7.22892e-05
-0.000569565
0.000283778
-0.000204667
-2.9618e-05
7.91071e-05
-0.000750826
-0.000866589
-0.000737884
0.000385552
-0.000220688
-4.96629e-05
5.59607e-05
0.000428717
0.000730591
0.00105245
0.00213651
0.00269836
0.00248404
0.00251418
-7.81997e-05
-0.000577309
0.000272724
-0.000221617
-3.16336e-05
3.97534e-05
-0.000731668
-0.000832805
-0.000758402
0.000374675
-0.000225968
-8.73852e-05
9.38319e-05
0.000391675
0.00070976
0.00101061
0.00199139
0.00253418
0.0022416
0.00215939
-8.42777e-05
-0.000585542
0.000260465
-0.000238118
-3.53324e-05
2.72769e-06
-0.000715978
-0.00079743
-0.000779861
0.00036241
-0.000227586
-0.000130925
0.000131672
0.000353901
0.000676451
0.000972585
0.00183644
0.00235413
0.00201427
0.00181643
-9.05172e-05
-0.000594249
0.000246775
-0.000253926
-4.10138e-05
-3.16629e-05
-0.000703998
-0.000760683
-0.000801708
0.000347611
-0.000224227
-0.000180678
0.000167784
0.000317711
0.000627853
0.000936893
0.00167807
0.00215496
0.00179865
0.00149363
-9.69208e-05
-0.000603388
0.000231377
-0.000268792
-4.89485e-05
-6.31363e-05
-0.00069594
-0.000722919
-0.000822985
0.000328917
-0.000215034
-0.00023661
0.000199833
0.000285821
0.000562371
0.000900539
0.00152345
0.00193654
0.00158815
0.00119771
-0.000103501
-0.000612879
0.000213945
-0.000282479
-5.93759e-05
-9.14565e-05
-0.000691865
-0.000684711
-0.000842454
0.000304846
-0.000199711
-0.000297986
0.00022477
0.000260867
0.000480282
0.000858678
0.00137875
0.00170276
0.00137369
0.000931529
-0.000110287
-0.000622611
0.000194127
-0.000294788
-7.24756e-05
-0.000116423
-0.000691599
-0.000646969
-0.000858828
0.000274269
-0.000178467
-0.000363175
0.000239203
0.000244798
0.000383346
0.000805323
0.00124805
0.00146044
0.00114612
0.000692487
-0.00011733
-0.000632416
0.000171563
-0.000305591
-8.83101e-05
-0.000136694
-0.000694787
-0.000610879
-0.000870943
0.000236655
-0.000152173
-0.000430049
0.000239775
0.000238278
0.000274895
0.000734599
0.00113239
0.0012188
0.000899826
0.00047283
-0.000124694
-0.000642093
0.000145906
-0.000314845
-0.000106843
-0.000155989
-0.000700916
-0.000577653
-0.000878078
0.000191893
-0.00012224
-0.000496211
0.000223513
0.000240379
0.000159847
0.000641695
0.00102906
0.000988498
0.000635058
0.000259862
-0.000132491
-0.000651403
0.00011688
-0.00032264
-0.000127956
-0.000173297
-0.000718787
-0.00054831
-0.000879859
0.000140285
-9.04965e-05
-0.000559173
0.00018833
0.000248723
4.42078e-05
0.000523822
0.000932572
0.000779568
0.000358425
3.83518e-05
-0.000140856
-0.000660074
8.42441e-05
-0.000329213
-0.000151319
-0.000188894
-0.000725806
-0.000523695
-0.000876416
8.25081e-05
-5.89096e-05
-0.000616785
0.000133056
0.000259647
-6.52985e-05
0.000381255
0.000834829
0.000598118
8.15854e-05
-0.000203663
-0.000149939
-0.000667835
4.78637e-05
-0.000335005
-0.000176367
-0.000203428
-0.000732548
-0.000504335
-0.000868515
1.92355e-05
-2.93875e-05
-0.000666935
5.74884e-05
0.000268379
-0.000162206
0.000217622
0.000726506
0.000444079
-0.000182584
-0.000469094
-0.000159952
-0.000674423
7.82855e-06
-0.0003407
-0.000202476
-0.000217574
-0.000738479
-0.000490267
-0.000856881
-4.90471e-05
-4.23129e-06
-0.000707518
-3.72677e-05
0.000269308
-0.000241741
3.83611e-05
0.000599837
0.000312652
-0.000422146
-0.000750715
-0.000171128
-0.000679608
-3.55582e-05
-0.000347191
-0.00022905
-0.000231718
-0.000743548
-0.00048143
-0.000841771
-0.000121478
1.38806e-05
-0.000736921
-0.000149027
0.000256291
-0.00030148
-0.000149412
0.00044987
0.00019706
-0.000628694
-0.00103414
-0.0001837
-0.000683232
-8.17609e-05
-0.000355524
-0.000255675
-0.000246038
-0.000748101
-0.000477684
-0.00082329
-0.000197175
2.21846e-05
-0.000753929
-0.000274356
0.000222754
-0.000342131
-0.00033616
0.00027491
8.83325e-05
-0.000799318
-0.00130284
-0.000197869
-0.000685211
-0.00013006
-0.000366716
-0.000282171
-0.000260501
-0.000752498
-0.000479013
-0.000801443
-0.000275357
1.75725e-05
-0.000758483
-0.000407744
0.000163464
-0.000368142
-0.000511583
7.74853e-05
-2.34677e-05
-0.000937509
-0.00154249
-0.000213791
-0.00068559
-0.00017961
-0.000381593
-0.000308741
-0.00027474
-0.000756861
-0.000485794
-0.000776587
-0.000354653
-3.11512e-06
-0.000752938
-0.000541944
7.73256e-05
-0.000386038
-0.00066834
-0.000136618
-0.00014571
-0.00105069
-0.00174693
-0.000231565
-0.000684616
-0.000229492
-0.000400677
-0.000336007
-0.0002884
-0.000760988
-0.000498732
-0.000749066
-0.000432147
-4.18878e-05
-0.000741306
-0.000670209
-3.39458e-05
-0.000403099
-0.000802302
-0.000361254
-0.000282186
-0.00114548
-0.0019198
-0.000251242
-0.000682705
-0.000278766
-0.000424098
-0.000364971
-0.000301482
-0.000764281
-0.000518649
-0.000721396
-0.000504218
-9.91249e-05
-0.000729016
-0.0007873
-0.00016704
-0.000426433
-0.00091061
-0.000589683
-0.000437036
-0.00122472
-0.00206447
-0.000272842
-0.000680426
-0.000326578
-0.000451421
-0.000396941
-0.000314364
-0.000765487
-0.000546303
-0.000695342
-0.000567438
-0.000173641
-0.000722938
-0.000891118
-0.000316042
-0.0004621
-0.000992236
-0.000811578
-0.00061556
-0.00129412
-0.0021775
-0.000296278
-0.000678518
-0.000372355
-0.000481502
-0.000433086
-0.000328229
-0.000764044
-0.00058125
-0.000675179
-0.000619621
-0.00026112
-0.000729372
-0.000982686
-0.000473891
-0.000514193
-0.0010503
-0.00101429
-0.000818013
-0.00136802
-0.00225403
-0.000321469
-0.00067762
-0.000415723
-0.000512941
-0.000473876
-0.000345253
-0.00075749
-0.000621922
-0.000665014
-0.000661816
-0.000355161
-0.000750761
-0.00106522
-0.000635447
-0.000584224
-0.00109191
-0.00118781
-0.00103324
-0.00146383
-0.00229989
-0.00034832
-0.000678239
-0.000456715
-0.000544467
-0.000519259
-0.00036801
-0.000746983
-0.000665191
-0.00066714
-0.000695336
-0.000450555
-0.000787369
-0.0011426
-0.000797798
-0.000671415
-0.00112416
-0.00132875
-0.00124426
-0.00158966
-0.00233469
-0.000376693
-0.000680825
-0.000495686
-0.000575601
-0.000568192
-0.000398834
-0.000734067
-0.000706678
-0.000682018
-0.000725133
-0.000543792
-0.000836968
-0.00121695
-0.0009594
-0.000774783
-0.00115217
-0.0014388
-0.00143837
-0.0017369
-0.00238355
-0.000406423
-0.00068567
-0.000533327
-0.00060494
-0.000618649
-0.000439385
-0.000722532
-0.000742994
-0.000708456
-0.000757012
-0.000633823
-0.000895981
-0.00128997
-0.00111834
-0.000894504
-0.00118072
-0.00152073
-0.00160935
-0.00188775
-0.00245913
-0.000437408
-0.00069292
-0.000570535
-0.000632686
-0.000668084
-0.000490184
-0.000717093
-0.000773485
-0.00074247
-0.000793076
-0.000721372
-0.000962808
-0.00136079
-0.00127156
-0.00103054
-0.00121604
-0.00157762
-0.00175543
-0.00203014
-0.00255
-0.00046962
-0.000702671
-0.000607849
-0.000659235
-0.000714437
-0.000550651
-0.000722215
-0.000798703
-0.000779175
-0.000833351
-0.000808126
-0.00103765
-0.00142965
-0.00141475
-0.00117887
-0.00126765
-0.00161401
-0.00187477
-0.00216201
-0.00263736
-0.000503035
-0.000714992
-0.000645831
-0.000685524
-0.000756407
-0.000618093
-0.000741435
-0.000821607
-0.000814174
-0.000877304
-0.00089529
-0.00111963
-0.0015005
-0.00154374
-0.00133031
-0.00134139
-0.00164044
-0.00196493
-0.00228491
-0.0027158
-0.000537657
-0.000729216
-0.000684835
-0.000713145
-0.000793388
-0.000688227
-0.00077589
-0.000848607
-0.000846856
-0.000919823
-0.000982732
-0.00120954
-0.00157472
-0.00166061
-0.00147628
-0.00143197
-0.00167264
-0.00202774
-0.00239563
-0.00279342
-0.000573521
-0.000745384
-0.000724818
-0.000743981
-0.000825479
-0.000756684
-0.000825251
-0.000885909
-0.000878859
-0.000955749
-0.00106723
-0.00130946
-0.00165505
-0.00176823
-0.00161105
-0.00152888
-0.0017185
-0.00207461
-0.0024868
-0.00287887
-0.000610737
-0.000763355
-0.000765581
-0.000779235
-0.000853666
-0.000820172
-0.000887447
-0.000937299
-0.000913736
-0.000984855
-0.00114206
-0.0014154
-0.0017494
-0.00187011
-0.00173205
-0.0016234
-0.00177242
-0.00212224
-0.00255657
-0.00296736
-0.000649464
-0.000783092
-0.000806551
-0.000819724
-0.000880384
-0.000876517
-0.000957304
-0.00100464
-0.000958072
-0.00100837
-0.00120185
-0.00152068
-0.00185987
-0.001976
-0.00184134
-0.00170814
-0.00182516
-0.00217631
-0.00261659
-0.00304649
-0.000689814
-0.000804707
-0.00084685
-0.00086577
-0.000908932
-0.000924746
-0.00102861
-0.00108717
-0.0010186
-0.00102986
-0.00124307
-0.00161725
-0.0019805
-0.00209713
-0.0019476
-0.0017797
-0.00186556
-0.00222875
-0.00268087
-0.00311322
-0.000731864
-0.000828441
-0.000885596
-0.000916974
-0.000942831
-0.000965488
-0.00109552
-0.001182
-0.00109933
-0.00105788
-0.00126604
-0.00169467
-0.00210573
-0.00223506
-0.0020646
-0.0018473
-0.00188458
-0.00226482
-0.00275145
-0.00317797
-0.000775595
-0.000854741
-0.000922237
-0.000972292
-0.000984646
-0.0010009
-0.00115398
-0.00128321
-0.00120145
-0.0011014
-0.00127521
-0.00174368
-0.00222513
-0.00238805
-0.00220056
-0.00192493
-0.00188947
-0.00226362
-0.00281556
-0.00325425
-0.000820835
-0.000884177
-0.000956762
-0.00102977
-0.00103596
-0.0010351
-0.00120172
-0.0013829
-0.00132293
-0.00116797
-0.00127942
-0.00176268
-0.00232221
-0.00255042
-0.00236013
-0.00202448
-0.00189878
-0.00222019
-0.00284216
-0.0033431
-0.00086733
-0.000917245
-0.000989554
-0.0010869
-0.00109711
-0.00107338
-0.00123882
-0.00147319
-0.001459
-0.00126343
-0.00129042
-0.00175536
-0.00238484
-0.00270838
-0.00254504
-0.00215267
-0.00192998
-0.00215768
-0.00280421
-0.0034187
-0.000914725
-0.000954371
-0.0010216
-0.00114109
-0.00116689
-0.00112075
-0.00126738
-0.00154828
-0.00160063
-0.00138878
-0.00132111
-0.00172841
-0.00240811
-0.00284271
-0.00274697
-0.00231718
-0.00199356
-0.00210332
-0.00270822
-0.00343703
-0.000962602
-0.000995658
-0.00105446
-0.00119072
-0.001243
-0.0011806
-0.00129242
-0.00160503
-0.00173674
-0.00153926
-0.00138333
-0.0016955
-0.00239149
-0.00293909
-0.00295001
-0.00251874
-0.00209751
-0.00208043
-0.0025865
-0.00337071
-0.00101064
-0.00104094
-0.00108997
-0.00123525
-0.00132124
-0.00125431
-0.00132124
-0.00164369
-0.00185726
-0.00170697
-0.00148334
-0.00167578
-0.00234065
-0.0029861
-0.0031332
-0.00274926
-0.00224886
-0.00210055
-0.00247534
-0.0032355
-0.00105861
-0.00108972
-0.00112982
-0.00127524
-0.00139694
-0.00134065
-0.00136079
-0.00166708
-0.00195454
-0.00187963
-0.00161975
-0.00168534
-0.00227081
-0.00297965
-0.00327547
-0.00299266
-0.00244955
-0.00216897
-0.00240107
-0.00307031
-0.00110649
-0.00114123
-0.00117515
-0.00131221
-0.00146613
-0.00143656
-0.00141629
-0.00168224
-0.00202484
-0.00204281
-0.00178591
-0.00173457
-0.00220425
-0.00292774
-0.00335867
-0.00322219
-0.00269456
-0.0022923
-0.00237395
-0.00291666
-0.00115444
-0.00119443
-0.00122615
-0.00134873
-0.00152677
-0.00153682
-0.00148988
-0.00169905
-0.00206956
-0.00218405
-0.00197042
-0.00182843
-0.00215952
-0.00284596
-0.0033792
-0.00340687
-0.00296389
-0.00247582
-0.00240021
-0.00280048
-0.00120276
-0.00124831
-0.00128221
-0.00138775
-0.00157896
-0.00163468
-0.00157997
-0.00172673
-0.00209326
-0.0022953
-0.0021558
-0.00196333
-0.00215169
-0.00275533
-0.00334777
-0.00352569
-0.00322037
-0.0027145
-0.00248951
-0.00273444
-0.00125178
-0.00130208
-0.00134224
-0.00143163
-0.00162415
-0.00172422
-0.00168225
-0.00177184
-0.00210516
-0.00237433
-0.00232485
-0.00212828
-0.00219175
-0.00267581
-0.00327837
-0.00357808
-0.00342738
-0.00298084
-0.00264657
-0.00272976
-0.00130181
-0.00135527
-0.00140458
-0.00148156
-0.00166502
-0.00180236
-0.00179005
-0.00183671
-0.00211715
-0.00242443
-0.00246645
-0.00230515
-0.00227936
-0.00262749
-0.00318969
-0.00357496
-0.0035678
-0.00323191
-0.00285955
-0.00279626
-0.001353
-0.00140782
-0.00146735
-0.00153731
-0.0017052
-0.00186876
-0.00189537
-0.00191868
-0.00213951
-0.00245226
-0.00257533
-0.00247435
-0.00240316
-0.00262478
-0.00310337
-0.00352919
-0.00364333
-0.00343503
-0.0030951
-0.00293007
-0.00140528
-0.00145982
-0.00152891
-0.00159757
-0.00174788
-0.00192517
-0.00199181
-0.00201215
-0.00217809
-0.00246921
-0.00265227
-0.0026226
-0.00254615
-0.00266836
-0.00304178
-0.00346038
-0.00366468
-0.00357818
-0.00331555
-0.003111
-0.00145834
-0.00151146
-0.00158825
-0.00166047
-0.0017948
-0.00197436
-0.00207611
-0.00210977
-0.00223361
-0.00248718
-0.00270289
-0.00274248
-0.00268957
-0.0027476
-0.0030188
-0.00339105
-0.00364611
-0.0036645
-0.00349615
-0.00330606
-0.00151169
-0.00156281
-0.00164494
-0.00172386
-0.00184604
-0.0020198
-0.00214805
-0.00220412
-0.00230219
-0.00251393
-0.00273629
-0.00283263
-0.00281984
-0.00284799
-0.00303505
-0.00334103
-0.0036079
-0.00370472
-0.00362814
-0.00348551
-0.00156468
-0.00161377
-0.00169895
-0.00178572
-0.00190046
-0.00206441
-0.00220937
-0.00229005
-0.00237794
-0.00255227
-0.00276335
-0.00289767
-0.00292913
-0.00295388
-0.00308163
-0.00332046
-0.00356961
-0.00371309
-0.00371443
-0.00363191
-0.00161656
-0.001664
-0.00175038
-0.00184453
-0.00195622
-0.00210973
-0.00226248
-0.00236534
-0.00245475
-0.0026008
-0.0027917
-0.0029447
-0.00301512
-0.00305341
-0.00314705
-0.00332904
-0.00354513
-0.00370682
-0.00376489
-0.00374032
-0.00166657
-0.00171291
-0.00179924
-0.00189937
-0.00201133
-0.00215594
-0.00230992
-0.00242987
-0.0025275
-0.00265573
-0.00282473
-0.00298173
-0.00308064
-0.00313951
-0.00321932
-0.00335974
-0.00353992
-0.00369966
-0.00379179
-0.00381475
-0.00171391
-0.00175968
-0.00184532
-0.00194974
-0.00206392
-0.00220214
-0.0023537
-0.00248489
-0.00259279
-0.00271254
-0.00286273
-0.00301502
-0.00313104
-0.0032098
-0.00328889
-0.00340352
-0.00355258
-0.0036999
-0.00380758
-0.00386388
-0.00175772
-0.00180337
-0.00188819
-0.00199533
-0.00211243
-0.00224684
-0.00239479
-0.00253214
-0.00264927
-0.00276686
-0.00290366
-0.00304772
-0.00317159
-0.00326587
-0.00335031
-0.00345162
-0.00357751
-0.00370964
-0.00382086
-0.00389693
-0.0017971
-0.00184292
-0.00192705
-0.00203572
-0.00215563
-0.00228829
-0.00243292
-0.00257309
-0.00269732
-0.00281584
-0.00294428
-0.00308022
-0.0032061
-0.00331074
-0.00340198
-0.00349797
-0.0036086
-0.00372688
-0.00383552
-0.00392156
-0.00183102
-0.0018772
-0.00196092
-0.00207035
-0.00219256
-0.00232472
-0.00246652
-0.00260761
-0.00273716
-0.0028582
-0.00298188
-0.00311084
-0.00323565
-0.00334639
-0.00344415
-0.00353933
-0.00364081
-0.00374794
-0.0038515
-0.00394167
-0.00185867
-0.00190509
-0.00198836
-0.00209793
-0.00222181
-0.0023541
-0.00249359
-0.00263415
-0.00276697
-0.00289085
-0.00301252
-0.00313641
-0.00325876
-0.00337261
-0.0034757
-0.00357242
-0.00366886
-0.00376713
-0.00386382
-0.00395326
-0.00188015
-0.00192889
-0.00201368
-0.00212435
-0.00225017
-0.00238384
-0.0025228
-0.00266282
-0.00279721
-0.00292349
-0.00304538
-0.00316684
-0.00328691
-0.0034012
-0.00350702
-0.00360594
-0.00370172
-0.0037965
-0.00388916
-0.00397656
0.0142129
0.00796059
-0.000714824
-0.00710224
-0.00909412
-0.00855739
-0.00761441
-0.00702126
-0.00691354
-0.00710191
-0.00731504
-0.00741435
-0.00742805
-0.00741441
-0.00739416
-0.00740734
-0.00743735
-0.00745353
-0.00750989
-0.00757708
-0.00758229
-0.00761804
-0.00774715
-0.00785637
-0.00790613
-0.00799005
-0.00812601
-0.00823927
-0.00830178
-0.00836883
-0.00849838
-0.00865237
-0.00874697
-0.00881847
-0.00895431
-0.00909745
-0.00917093
-0.00924046
-0.0093496
-0.00943833
-0.00949456
-0.00955989
-0.00963349
-0.00969941
-0.00976347
-0.0098302
-0.00989644
-0.00996053
-0.0100243
-0.0100932
-0.0101662
-0.0102375
-0.0103088
-0.0103867
-0.0104683
-0.0105497
-0.0106324
-0.0107202
-0.010811
-0.0109041
-0.0109993
-0.0110981
-0.0111995
-0.0113039
-0.0114112
-0.0115212
-0.011635
-0.0117507
-0.0118709
-0.0119924
-0.012119
-0.0122465
-0.0123792
-0.0125133
-0.0126518
-0.0127933
-0.012937
-0.0130862
-0.013235
-0.0133912
-0.013546
-0.0137076
-0.0138702
-0.0140356
-0.014207
-0.0143765
-0.0145552
-0.0147318
-0.0149138
-0.0151015
-0.0152839
-0.0154824
-0.0156692
-0.0158669
-0.0160719
-0.0162533
-0.0164675
-0.0166623
-0.0168014
-0.0169766
0.0133891
0.00781107
-0.000625662
-0.00696217
-0.00900899
-0.00851571
-0.00758805
-0.00700222
-0.00689936
-0.0070912
-0.00730684
-0.00740789
-0.00742274
-0.00740986
-0.00739002
-0.00740352
-0.0074339
-0.0074503
-0.0075069
-0.00757446
-0.00757981
-0.0076156
-0.00774498
-0.00785449
-0.00790431
-0.00798828
-0.00812444
-0.00823789
-0.0083005
-0.00836757
-0.0084972
-0.00865137
-0.0087461
-0.0088176
-0.0089535
-0.00909681
-0.00917037
-0.00923991
-0.00934914
-0.00943796
-0.00949422
-0.00955958
-0.00963324
-0.0096992
-0.00976329
-0.00983004
-0.00989631
-0.00996042
-0.0100242
-0.0100931
-0.0101662
-0.0102375
-0.0103087
-0.0103866
-0.0104683
-0.0105497
-0.0106323
-0.0107201
-0.010811
-0.0109041
-0.0109993
-0.0110981
-0.0111995
-0.0113039
-0.0114112
-0.0115212
-0.011635
-0.0117507
-0.0118709
-0.0119924
-0.012119
-0.0122465
-0.0123792
-0.0125133
-0.0126518
-0.0127934
-0.012937
-0.0130862
-0.013235
-0.0133912
-0.013546
-0.0137076
-0.0138702
-0.0140356
-0.014207
-0.0143765
-0.0145552
-0.0147318
-0.0149138
-0.0151015
-0.0152839
-0.0154824
-0.0156692
-0.0158669
-0.0160719
-0.0162533
-0.0164675
-0.0166623
-0.0168014
-0.0169766
0.0126373
0.00768253
-0.000431616
-0.00669513
-0.00886269
-0.00846179
-0.00756208
-0.00698267
-0.00688321
-0.00707764
-0.0072954
-0.00739857
-0.00741557
-0.0074045
-0.00738576
-0.00739988
-0.00743066
-0.00744724
-0.00750411
-0.00757203
-0.00757747
-0.0076133
-0.00774299
-0.00785275
-0.0079026
-0.00798665
-0.008123
-0.00823661
-0.00829928
-0.00836637
-0.00849611
-0.00865045
-0.00874527
-0.00881675
-0.00895275
-0.00909622
-0.00916981
-0.00923935
-0.00934869
-0.0094376
-0.00949388
-0.00955928
-0.00963299
-0.00969898
-0.0097631
-0.00982988
-0.00989618
-0.00996031
-0.0100241
-0.010093
-0.0101661
-0.0102374
-0.0103087
-0.0103866
-0.0104682
-0.0105497
-0.0106323
-0.0107201
-0.0108109
-0.0109041
-0.0109993
-0.0110981
-0.0111995
-0.0113039
-0.0114112
-0.0115212
-0.011635
-0.0117507
-0.0118709
-0.0119924
-0.012119
-0.0122465
-0.0123792
-0.0125133
-0.0126518
-0.0127934
-0.012937
-0.0130862
-0.013235
-0.0133912
-0.013546
-0.0137076
-0.0138702
-0.0140356
-0.014207
-0.0143765
-0.0145552
-0.0147318
-0.0149138
-0.0151016
-0.0152839
-0.0154824
-0.0156692
-0.0158669
-0.0160719
-0.0162533
-0.0164675
-0.0166623
-0.0168014
-0.0169766
0.0119335
0.00755548
-0.00019062
-0.00636096
-0.00866459
-0.00838718
-0.0075258
-0.00695498
-0.00686039
-0.00705835
-0.00727832
-0.00738373
-0.00740368
-0.00739572
-0.00737937
-0.00739497
-0.00742658
-0.00744354
-0.00750075
-0.00756909
-0.00757473
-0.00761065
-0.00774059
-0.00785062
-0.00790064
-0.0079848
-0.00812125
-0.00823499
-0.0082978
-0.00836498
-0.00849478
-0.00864927
-0.00874419
-0.0088157
-0.00895182
-0.00909543
-0.00916904
-0.00923862
-0.0093481
-0.00943709
-0.0094934
-0.00955887
-0.00963265
-0.00969867
-0.00976283
-0.00982966
-0.00989599
-0.00996015
-0.0100239
-0.0100929
-0.010166
-0.0102374
-0.0103086
-0.0103865
-0.0104682
-0.0105497
-0.0106323
-0.0107201
-0.0108109
-0.0109041
-0.0109993
-0.0110981
-0.0111995
-0.0113039
-0.0114112
-0.0115212
-0.011635
-0.0117507
-0.0118709
-0.0119924
-0.012119
-0.0122465
-0.0123792
-0.0125133
-0.0126518
-0.0127934
-0.012937
-0.0130862
-0.013235
-0.0133912
-0.013546
-0.0137076
-0.0138702
-0.0140356
-0.014207
-0.0143765
-0.0145552
-0.0147318
-0.0149138
-0.0151016
-0.0152839
-0.0154824
-0.0156692
-0.0158669
-0.0160719
-0.0162533
-0.0164675
-0.0166623
-0.0168014
-0.0169766
0.0112365
0.00740008
5.25053e-05
-0.00601011
-0.00844709
-0.00830283
-0.00748424
-0.00692129
-0.0068312
-0.00703281
-0.00725477
-0.00736233
-0.00738586
-0.00738224
-0.00736955
-0.00738757
-0.00742069
-0.00743852
-0.00749622
-0.00756515
-0.00757139
-0.00760745
-0.00773733
-0.00784768
-0.00789823
-0.00798256
-0.00811886
-0.00823266
-0.00829583
-0.00836321
-0.00849296
-0.00864747
-0.0087426
-0.00881427
-0.00895047
-0.00909414
-0.00916781
-0.00923751
-0.00934714
-0.00943623
-0.00949262
-0.00955821
-0.00963208
-0.00969816
-0.00976238
-0.00982928
-0.00989566
-0.00995987
-0.0100237
-0.0100927
-0.0101658
-0.0102372
-0.0103085
-0.0103864
-0.0104681
-0.0105496
-0.0106322
-0.0107201
-0.0108109
-0.0109041
-0.0109992
-0.011098
-0.0111995
-0.0113039
-0.0114112
-0.0115212
-0.0116349
-0.0117507
-0.0118709
-0.0119924
-0.012119
-0.0122465
-0.0123792
-0.0125133
-0.0126518
-0.0127934
-0.012937
-0.0130862
-0.013235
-0.0133912
-0.013546
-0.0137076
-0.0138702
-0.0140356
-0.014207
-0.0143765
-0.0145552
-0.0147318
-0.0149138
-0.0151016
-0.0152839
-0.0154824
-0.0156692
-0.0158669
-0.0160719
-0.0162533
-0.0164675
-0.0166624
-0.0168015
-0.0169766
0.0105409
0.00720809
0.000285331
-0.00565481
-0.00821874
-0.00821365
-0.00744205
-0.0068856
-0.00679826
-0.00700303
-0.00722679
-0.00733637
-0.00736362
-0.00736483
-0.00735641
-0.0073773
-0.00741246
-0.00743171
-0.00749013
-0.00755994
-0.00756736
-0.00760369
-0.00773306
-0.00784369
-0.00789527
-0.0079799
-0.00811566
-0.00822939
-0.00829324
-0.00836102
-0.00849045
-0.00864476
-0.00874026
-0.00881232
-0.0089485
-0.0090921
-0.00916591
-0.00923584
-0.0093456
-0.00943479
-0.00949136
-0.00955714
-0.00963114
-0.00969732
-0.00976164
-0.00982864
-0.00989511
-0.00995941
-0.0100233
-0.0100923
-0.0101655
-0.010237
-0.0103083
-0.0103863
-0.010468
-0.0105495
-0.0106321
-0.01072
-0.0108108
-0.010904
-0.0109992
-0.011098
-0.0111994
-0.0113038
-0.0114111
-0.0115212
-0.0116349
-0.0117507
-0.0118709
-0.0119924
-0.012119
-0.0122465
-0.0123792
-0.0125133
-0.0126518
-0.0127934
-0.012937
-0.0130862
-0.013235
-0.0133912
-0.013546
-0.0137076
-0.0138702
-0.0140356
-0.014207
-0.0143765
-0.0145552
-0.0147318
-0.0149138
-0.0151016
-0.0152839
-0.0154824
-0.0156692
-0.0158669
-0.0160719
-0.0162533
-0.0164675
-0.0166624
-0.0168016
-0.0169766
0.00985034
0.00697995
0.00050549
-0.00529552
-0.00797869
-0.00811887
-0.00739981
-0.00684917
-0.00676272
-0.00697027
-0.0071961
-0.00730795
-0.00733908
-0.00734525
-0.00734112
-0.00736476
-0.00740203
-0.00742305
-0.00748241
-0.00755341
-0.00756263
-0.00759939
-0.00772782
-0.00783866
-0.00789171
-0.00797674
-0.00811157
-0.00822511
-0.00829005
-0.00835846
-0.00848722
-0.00864097
-0.00873705
-0.00880976
-0.00894577
-0.00908909
-0.00916318
-0.00923346
-0.0093433
-0.0094326
-0.00948947
-0.00955553
-0.00962969
-0.009696
-0.00976048
-0.00982763
-0.00989424
-0.00995867
-0.0100227
-0.0100918
-0.010165
-0.0102365
-0.0103079
-0.010386
-0.0104677
-0.0105492
-0.0106319
-0.0107198
-0.0108107
-0.0109039
-0.0109991
-0.0110979
-0.0111994
-0.0113038
-0.0114111
-0.0115212
-0.0116349
-0.0117507
-0.0118709
-0.0119924
-0.012119
-0.0122465
-0.0123792
-0.0125133
-0.0126518
-0.0127934
-0.012937
-0.0130862
-0.013235
-0.0133912
-0.013546
-0.0137076
-0.0138702
-0.0140356
-0.014207
-0.0143765
-0.0145552
-0.0147318
-0.0149138
-0.0151016
-0.0152839
-0.0154824
-0.0156692
-0.0158669
-0.0160719
-0.0162534
-0.0164675
-0.0166625
-0.0168018
-0.0169767
0.00917122
0.00671853
0.000711078
-0.00493208
-0.00772517
-0.00801666
-0.00735725
-0.00681265
-0.00672519
-0.00693506
-0.00716343
-0.00727797
-0.00731321
-0.00732445
-0.00732457
-0.00735074
-0.00738998
-0.00741288
-0.00747334
-0.00754578
-0.00755724
-0.0075946
-0.00772184
-0.00783284
-0.00788763
-0.00797307
-0.00810665
-0.00821991
-0.00828632
-0.00835561
-0.00848337
-0.00863617
-0.00873296
-0.00880658
-0.00894224
-0.00908508
-0.00915957
-0.00923032
-0.00934015
-0.00942955
-0.00948686
-0.0095533
-0.00962764
-0.00969413
-0.00975883
-0.00982617
-0.00989296
-0.00995758
-0.0100217
-0.0100909
-0.0101643
-0.0102359
-0.0103074
-0.0103855
-0.0104673
-0.0105489
-0.0106317
-0.0107196
-0.0108105
-0.0109037
-0.010999
-0.0110978
-0.0111993
-0.0113037
-0.011411
-0.0115211
-0.0116349
-0.0117507
-0.0118709
-0.0119924
-0.012119
-0.0122465
-0.0123792
-0.0125133
-0.0126518
-0.0127934
-0.012937
-0.0130862
-0.013235
-0.0133912
-0.013546
-0.0137076
-0.0138702
-0.0140356
-0.014207
-0.0143765
-0.0145552
-0.0147318
-0.0149138
-0.0151016
-0.0152839
-0.0154824
-0.0156692
-0.0158669
-0.0160719
-0.0162534
-0.0164675
-0.0166625
-0.016802
-0.0169768
0.00851047
0.0064274
0.000898749
-0.00456636
-0.00745781
-0.00790583
-0.00731426
-0.00677684
-0.00668621
-0.00689759
-0.00712893
-0.00724665
-0.00728625
-0.00730266
-0.00730708
-0.00733568
-0.00737678
-0.00740162
-0.00746329
-0.00753731
-0.00755123
-0.00758935
-0.00771533
-0.00782648
-0.00788315
-0.00796894
-0.00810102
-0.00821396
-0.00828212
-0.00835254
-0.0084791
-0.00863061
-0.00872817
-0.00880287
-0.008938
-0.00908015
-0.00915515
-0.00922647
-0.00933622
-0.00942569
-0.00948355
-0.00955044
-0.009625
-0.0096917
-0.00975665
-0.00982423
-0.00989125
-0.00995612
-0.0100205
-0.0100898
-0.0101632
-0.010235
-0.0103067
-0.0103849
-0.0104667