/*--------------------------------*- C++ -*----------------------------------*\
| =========                 |                                                 |
| \\      /  F ield         | OpenFOAM: The Open Source CFD Toolbox           |
|  \\    /   O peration     | Version:  3.0.1                                 |
|   \\  /    A nd           | Web:      www.OpenFOAM.org                      |
|    \\/     M anipulation  |                                                 |
\*---------------------------------------------------------------------------*/
FoamFile
{
    version     2.0;
    format      ascii;
    class       surfaceScalarField;
    location    "0.3";
    object      phi;
}
// * * * * * * * * * * * * * * * * * * * * * * * * * * * * * * * * * * * * * //

dimensions      [0 3 -1 0 0 0 0];

internalField   nonuniform List<scalar> 
19000
(
1.16738e-06
4.10327e-08
1.16761e-06
-2.14095e-07
1.17047e-06
3.37042e-07
1.15759e-06
-5.39701e-07
1.1978e-06
5.99147e-07
1.11559e-06
-3.26193e-07
1.14945e-06
1.02203e-07
1.16915e-06
3.01491e-07
1.15909e-06
-3.30172e-07
1.1752e-06
4.32274e-08
1.15913e-06
1.50747e-08
1.14696e-06
4.00662e-07
1.15407e-06
-7.25856e-09
1.15101e-06
1.96887e-07
1.16208e-06
-3.79039e-08
1.15904e-06
6.0804e-08
1.16814e-06
-5.3604e-08
1.16012e-06
2.99156e-08
1.15799e-06
-1.10068e-08
2.57983e-08
1.1311e-06
1.222e-06
4.32913e-08
1.223e-06
-2.15093e-07
1.22369e-06
3.36352e-07
1.21134e-06
-5.27346e-07
1.24879e-06
5.61691e-07
1.17023e-06
-2.47628e-07
1.20024e-06
7.21941e-08
1.22882e-06
2.72909e-07
1.21758e-06
-3.18929e-07
1.23474e-06
2.60614e-08
1.21573e-06
3.40895e-08
1.21114e-06
4.05245e-07
1.2099e-06
-6.01747e-09
1.21767e-06
1.89117e-07
1.21632e-06
-3.65542e-08
1.2275e-06
4.96226e-08
1.2181e-06
-4.42013e-08
1.23166e-06
1.63593e-08
1.20347e-06
1.71764e-08
1.58813e-08
1.21339e-06
1.27866e-06
4.74192e-08
1.28078e-06
-2.17215e-07
1.27981e-06
3.37316e-07
1.26807e-06
-5.15603e-07
1.30069e-06
5.29068e-07
1.23475e-06
-1.81685e-07
1.25261e-06
5.43311e-08
1.29179e-06
2.33735e-07
1.27764e-06
-3.04784e-07
1.29512e-06
8.58272e-09
1.27283e-06
5.63817e-08
1.27508e-06
4.02992e-07
1.26546e-06
3.60489e-09
1.27895e-06
1.75624e-07
1.27141e-06
-2.90137e-08
1.28432e-06
3.67172e-08
1.27351e-06
-3.3395e-08
1.28303e-06
6.84393e-09
1.26489e-06
3.53148e-08
2.31844e-08
1.25758e-06
1.33804e-06
5.34872e-08
1.34135e-06
-2.20529e-07
1.33944e-06
3.39224e-07
1.32927e-06
-5.05436e-07
1.35543e-06
5.02913e-07
1.30756e-06
-1.33813e-07
1.31104e-06
5.08511e-08
1.35495e-06
1.89818e-07
1.34006e-06
-2.89893e-07
1.35236e-06
-3.71386e-09
1.33251e-06
7.62338e-08
1.33521e-06
4.00289e-07
1.32442e-06
1.44013e-08
1.33574e-06
1.64295e-07
1.33008e-06
-2.33528e-08
1.33882e-06
2.79843e-08
1.33187e-06
-2.64537e-08
1.33687e-06
1.84518e-09
1.32546e-06
4.6732e-08
3.46239e-08
1.31402e-06
1.40106e-06
6.07858e-08
1.40489e-06
-2.24365e-07
1.40305e-06
3.41061e-07
1.39486e-06
-4.97239e-07
1.41428e-06
4.83486e-07
1.38427e-06
-1.03801e-07
1.37751e-06
5.7612e-08
1.41774e-06
1.49589e-07
1.40542e-06
-2.77572e-07
1.41002e-06
-8.31738e-09
1.39596e-06
9.02928e-08
1.3981e-06
3.98151e-07
1.38901e-06
2.34909e-08
1.39737e-06
1.55932e-07
1.39345e-06
-1.94274e-08
1.39995e-06
2.14826e-08
1.39408e-06
-2.05785e-08
1.39774e-06
-1.81506e-09
1.38869e-06
5.57796e-08
4.6229e-08
1.37708e-06
1.46842e-06
6.8047e-08
1.47175e-06
-2.27696e-07
1.47082e-06
3.41991e-07
1.46421e-06
-4.9063e-07
1.47792e-06
4.69773e-07
1.46172e-06
-8.75986e-08
1.45123e-06
6.80966e-08
1.48225e-06
1.18578e-07
1.47342e-06
-2.68743e-07
1.47241e-06
-7.31391e-09
1.46369e-06
9.9012e-08
1.46713e-06
3.94719e-07
1.45954e-06
3.10756e-08
1.46619e-06
1.49288e-07
1.46203e-06
-1.5273e-08
1.46756e-06
1.59518e-08
1.46143e-06
-1.44479e-08
1.46391e-06
-4.29266e-09
1.45663e-06
6.30584e-08
5.79353e-08
1.44492e-06
1.54022e-06
7.40417e-08
1.54227e-06
-2.29741e-07
1.54257e-06
3.4169e-07
1.53673e-06
-4.84788e-07
1.54633e-06
4.6017e-07
1.53908e-06
-8.03544e-08
1.52952e-06
7.76604e-08
1.5504e-06
9.76961e-08
1.54361e-06
-2.6195e-07
1.54052e-06
-4.22917e-09
1.53559e-06
1.03949e-07
1.54136e-06
3.88949e-07
1.53462e-06
3.78139e-08
1.54046e-06
1.4345e-07
1.5351e-06
-9.91609e-09
1.53969e-06
1.13588e-08
1.53323e-06
-7.97967e-09
1.53408e-06
-5.14294e-09
1.52842e-06
6.87132e-08
6.96653e-08
1.51669e-06
1.61603e-06
7.8137e-08
1.61659e-06
-2.303e-07
1.61796e-06
3.40322e-07
1.61211e-06
-4.78942e-07
1.61914e-06
4.53143e-07
1.61701e-06
-7.82275e-08
1.60999e-06
8.46861e-08
1.62285e-06
8.48299e-08
1.61626e-06
-2.55359e-07
1.61326e-06
-1.22602e-09
1.61094e-06
1.06271e-07
1.61893e-06
3.80961e-07
1.61261e-06
4.41291e-08
1.6182e-06
1.37858e-07
1.61166e-06
-3.3713e-09
1.61518e-06
7.84032e-09
1.60857e-06
-1.37207e-09
1.60758e-06
-4.14988e-09
1.60335e-06
7.29379e-08
8.12671e-08
1.59175e-06
1.69529e-06
8.04195e-08
1.69465e-06
-2.29659e-07
1.69674e-06
3.38228e-07
1.69043e-06
-4.72629e-07
1.69605e-06
4.47519e-07
1.69655e-06
-7.87254e-08
1.69182e-06
8.94147e-08
1.69955e-06
7.71031e-08
1.69218e-06
-2.47985e-07
1.68969e-06
1.2573e-09
1.68911e-06
1.06857e-07
1.69882e-06
3.71247e-07
1.69279e-06
5.01608e-08
1.69846e-06
1.32185e-07
1.69124e-06
3.85314e-09
1.6937e-06
5.37924e-09
1.68723e-06
5.09747e-09
1.6844e-06
-1.32254e-09
1.68139e-06
7.59466e-08
9.25764e-08
1.67009e-06
1.77774e-06
8.14062e-08
1.77634e-06
-2.28265e-07
1.7789e-06
3.35674e-07
1.77196e-06
-4.65689e-07
1.77697e-06
4.42501e-07
1.77862e-06
-8.03679e-08
1.77548e-06
9.25546e-08
1.78035e-06
7.22265e-08
1.77205e-06
-2.3968e-07
1.76973e-06
3.58039e-09
1.77013e-06
1.06451e-07
1.78108e-06
3.603e-07
1.77538e-06
5.586e-08
1.78125e-06
1.26317e-07
1.77391e-06
1.11879e-08
1.77542e-06
3.87276e-09
1.76937e-06
1.11509e-08
1.7649e-06
3.13847e-09
1.76283e-06
7.80252e-08
1.03339e-07
1.75206e-06
1.86349e-06
8.16656e-08
1.86169e-06
-2.26469e-07
1.86459e-06
3.32778e-07
1.85705e-06
-4.58147e-07
1.86196e-06
4.37592e-07
1.86388e-06
-8.22955e-08
1.86181e-06
9.46227e-08
1.86522e-06
6.88256e-08
1.85623e-06
-2.30694e-07
1.85368e-06
6.13502e-09
1.85456e-06
1.05562e-07
1.86631e-06
3.4855e-07
1.86102e-06
6.11506e-08
1.86702e-06
1.20319e-07
1.85998e-06
1.82266e-08
1.86062e-06
3.23667e-09
1.85518e-06
1.65935e-08
1.84939e-06
8.92809e-09
1.84791e-06
7.95011e-08
1.132e-07
1.83805e-06
1.9529e-06
8.16044e-08
1.95089e-06
-2.24459e-07
1.95408e-06
3.29585e-07
1.94602e-06
-4.50088e-07
1.95113e-06
4.32489e-07
1.95284e-06
-8.40086e-08
1.95159e-06
9.58732e-08
1.95417e-06
6.62476e-08
1.94485e-06
-2.21374e-07
1.94188e-06
9.10774e-09
1.94302e-06
1.04417e-07
1.95522e-06
3.36353e-07
1.95036e-06
6.60125e-08
1.9563e-06
1.14376e-07
1.94977e-06
2.47499e-08
1.94958e-06
3.43282e-09
1.94481e-06
2.13645e-08
1.93807e-06
1.567e-08
1.93685e-06
8.07149e-08
1.21787e-07
1.92826e-06
2.04635e-06
8.14418e-08
2.0442e-06
-2.22311e-07
2.04766e-06
3.26125e-07
2.03916e-06
-4.41588e-07
2.04466e-06
4.26989e-07
2.04588e-06
-8.52208e-08
2.04533e-06
9.64204e-08
2.04731e-06
6.42685e-08
2.03798e-06
-2.12045e-07
2.03456e-06
1.25286e-08
2.03594e-06
1.03035e-07
2.0483e-06
3.23995e-07
2.04383e-06
7.04763e-08
2.04949e-06
1.08722e-07
2.04356e-06
3.06828e-08
2.04256e-06
4.42787e-09
2.03839e-06
2.55347e-08
2.0311e-06
2.29609e-08
2.02985e-06
8.19604e-08
1.28822e-07
2.02282e-06
2.14417e-06
8.12706e-08
2.14191e-06
-2.20052e-07
2.14561e-06
3.22432e-07
2.1367e-06
-4.3268e-07
2.14275e-06
4.20937e-07
2.14331e-06
-8.57758e-08
2.1434e-06
9.63293e-08
2.14479e-06
6.28784e-08
2.13573e-06
-2.02985e-07
2.13189e-06
1.63677e-08
2.13358e-06
1.01347e-07
2.14588e-06
3.11691e-07
2.14177e-06
7.45863e-08
2.14694e-06
1.03548e-07
2.14157e-06
3.60558e-08
2.13986e-06
6.14118e-09
2.13611e-06
2.92829e-08
2.12865e-06
3.04154e-08
2.12718e-06
8.34334e-08
1.34186e-07
2.12182e-06
2.24664e-06
8.1119e-08
2.24428e-06
-2.17692e-07
2.24818e-06
3.18527e-07
2.23886e-06
-4.23352e-07
2.24558e-06
4.14215e-07
2.2454e-06
-8.55955e-08
2.24609e-06
9.56347e-08
2.24681e-06
6.21593e-08
2.23825e-06
-1.94418e-07
2.23401e-06
2.05987e-08
2.23608e-06
9.92784e-08
2.24819e-06
2.99586e-07
2.24439e-06
7.83864e-08
2.24899e-06
9.89467e-08
2.24407e-06
4.09756e-08
2.24178e-06
8.43228e-09
2.23822e-06
3.28387e-08
2.23092e-06
3.77201e-08
2.22916e-06
8.51959e-08
1.37953e-07
2.22539e-06
2.35401e-06
8.0988e-08
2.35155e-06
-2.15231e-07
2.35566e-06
3.14411e-07
2.34587e-06
-4.13562e-07
2.35334e-06
4.06745e-07
2.35239e-06
-8.46389e-08
2.35369e-06
9.43267e-08
2.35364e-06
6.22162e-08
2.34573e-06
-1.86506e-07
2.3411e-06
2.52235e-08
2.34359e-06
9.67911e-08
2.35542e-06
2.87751e-07
2.35188e-06
8.19275e-08
2.35594e-06
9.48852e-08
2.35132e-06
4.56026e-08
2.34862e-06
1.11231e-08
2.34506e-06
3.64077e-08
2.33809e-06
4.4684e-08
2.33608e-06
8.72066e-08
1.40319e-07
2.33372e-06
2.46652e-06
8.08682e-08
2.46395e-06
-2.12666e-07
2.4683e-06
3.10063e-07
2.45799e-06
-4.03255e-07
2.46625e-06
3.98487e-07
2.46448e-06
-8.28708e-08
2.46646e-06
9.23441e-08
2.46553e-06
6.31434e-08
2.45838e-06
-1.79349e-07
2.45334e-06
3.02655e-08
2.45622e-06
9.3905e-08
2.46779e-06
2.76179e-07
2.46443e-06
8.52886e-08
2.46811e-06
9.12111e-08
2.46358e-06
5.01268e-08
2.46066e-06
1.40448e-08
2.45698e-06
4.00874e-08
2.45037e-06
5.12903e-08
2.44823e-06
8.93558e-08
1.41516e-07
2.44703e-06
2.58442e-06
8.07474e-08
2.58174e-06
-2.09989e-07
2.58634e-06
3.05457e-07
2.57546e-06
-3.92374e-07
2.58453e-06
3.89421e-07
2.5819e-06
-8.02433e-08
2.58466e-06
8.95898e-08
2.58279e-06
6.50095e-08
2.57643e-06
-1.72993e-07
2.57096e-06
3.5741e-08
2.57416e-06
9.07063e-08
2.58555e-06
2.64787e-07
2.58224e-06
8.85975e-08
2.58576e-06
8.76922e-08
2.58115e-06
5.4738e-08
2.5781e-06
1.70871e-08
2.57438e-06
4.3816e-08
2.56798e-06
5.76868e-08
2.56583e-06
9.15061e-08
1.41751e-07
2.5656e-06
2.70796e-06
8.06139e-08
2.70516e-06
-2.07189e-07
2.71006e-06
3.00561e-07
2.69855e-06
-3.80869e-07
2.70845e-06
3.79529e-07
2.7049e-06
-7.66933e-08
2.70853e-06
8.59588e-08
2.70568e-06
6.78551e-08
2.70013e-06
-1.67439e-07
2.69424e-06
4.16249e-08
2.6976e-06
8.73464e-08
2.70896e-06
2.53426e-07
2.70553e-06
9.20274e-08
2.70913e-06
8.40992e-08
2.7043e-06
5.95634e-08
2.70114e-06
2.02494e-08
2.69757e-06
4.73857e-08
2.69119e-06
6.40661e-08
2.68912e-06
9.35803e-08
1.41165e-07
2.6897e-06
2.83743e-06
8.04573e-08
2.83449e-06
-2.04257e-07
2.83971e-06
2.95339e-07
2.82754e-06
-3.6869e-07
2.83828e-06
3.68781e-07
2.83374e-06
-7.21493e-08
2.83833e-06
8.13639e-08
2.8345e-06
7.16909e-08
2.82971e-06
-1.62646e-07
2.82351e-06
4.78243e-08
2.82682e-06
8.40373e-08
2.83834e-06
2.41897e-07
2.8346e-06
9.57745e-08
2.83842e-06
8.0282e-08
2.83341e-06
6.45688e-08
2.82995e-06
2.37109e-08
2.82681e-06
5.05223e-08
2.82037e-06
7.05033e-08
2.81831e-06
9.56469e-08
1.39839e-07
2.81963e-06
2.97308e-06
8.0268e-08
2.97001e-06
-2.01178e-07
2.97559e-06
2.89752e-07
2.96269e-06
-3.55783e-07
2.97433e-06
3.57134e-07
2.96873e-06
-6.65437e-08
2.97434e-06
7.5754e-08
2.96954e-06
7.64904e-08
2.96542e-06
-1.58524e-07
2.95907e-06
5.41662e-08
2.96206e-06
8.10466e-08
2.97399e-06
2.29971e-07
2.96976e-06
1.00004e-07
2.9738e-06
7.62382e-08
2.96884e-06
6.95344e-08
2.96476e-06
2.77896e-08
2.96228e-06
5.30039e-08
2.95592e-06
7.68599e-08
2.95366e-06
9.79098e-08
1.37845e-07
2.95565e-06
3.11524e-06
8.00358e-08
3.11199e-06
-1.97931e-07
3.118e-06
2.83747e-07
3.1043e-06
-3.42086e-07
3.11689e-06
3.44542e-07
3.11017e-06
-5.98245e-08
3.1168e-06
6.91228e-08
3.11111e-06
8.2179e-08
3.10752e-06
-1.54925e-07
3.10128e-06
6.03979e-08
3.10365e-06
7.86833e-08
3.11619e-06
2.1743e-07
3.11139e-06
1.04802e-07
3.11551e-06
7.21209e-08
3.11092e-06
7.41228e-08
3.10589e-06
3.28196e-08
3.10411e-06
5.47809e-08
3.09819e-06
8.27829e-08
3.09551e-06
1.00594e-07
1.35345e-07
3.09801e-06
3.2642e-06
7.97484e-08
3.26075e-06
-1.94486e-07
3.26724e-06
2.77258e-07
3.25269e-06
-3.27531e-07
3.26627e-06
3.30962e-07
3.25841e-06
-5.19668e-08
3.26602e-06
6.15153e-08
3.25957e-06
8.86237e-08
3.25628e-06
-1.51632e-07
3.25048e-06
6.61996e-08
3.25189e-06
7.72723e-08
3.26521e-06
2.04113e-07
3.25988e-06
1.10132e-07
3.26376e-06
6.82351e-08
3.25995e-06
7.79334e-08
3.25372e-06
3.90475e-08
3.25249e-06
5.60143e-08
3.24746e-06
8.78144e-08
3.24425e-06
1.03802e-07
1.32632e-07
3.24696e-06
3.42029e-06
7.93908e-08
3.41661e-06
-1.90803e-07
3.42366e-06
2.70204e-07
3.40818e-06
-3.1205e-07
3.42277e-06
3.16369e-07
3.41379e-06
-4.29844e-08
3.42227e-06
5.30323e-08
3.41527e-06
9.56256e-08
3.412e-06
-1.48364e-07
3.40699e-06
7.12123e-08
3.40715e-06
7.71074e-08
3.42129e-06
1.89979e-07
3.41562e-06
1.15798e-07
3.41884e-06
6.50178e-08
3.41618e-06
8.0592e-08
3.40882e-06
4.64047e-08
3.40766e-06
5.71784e-08
3.40395e-06
9.15278e-08
3.40033e-06
1.07416e-07
1.30113e-07
3.40285e-06
3.58386e-06
7.89447e-08
3.57988e-06
-1.86829e-07
3.58759e-06
2.62494e-07
3.57112e-06
-2.95578e-07
3.58672e-06
3.00766e-07
3.57668e-06
-3.29387e-08
3.58587e-06
4.38388e-08
3.57859e-06
1.02911e-07
3.575e-06
-1.44775e-07
3.57116e-06
7.5052e-08
3.56983e-06
7.84315e-08
3.58469e-06
1.75126e-07
3.57904e-06
1.21448e-07
3.58108e-06
6.29782e-08
3.57985e-06
8.18209e-08
3.57168e-06
5.45715e-08
3.57002e-06
5.88342e-08
3.56784e-06
9.37143e-08
3.56418e-06
1.11072e-07
1.28203e-07
3.56609e-06
3.75526e-06
7.8389e-08
3.75094e-06
-1.82503e-07
3.75939e-06
2.54038e-07
3.74189e-06
-2.78079e-07
3.75846e-06
2.84198e-07
3.74747e-06
-2.19464e-08
3.75715e-06
3.41608e-08
3.74991e-06
1.10149e-07
3.74562e-06
-1.40485e-07
3.7433e-06
7.73648e-08
3.74037e-06
8.13695e-08
3.75566e-06
1.5983e-07
3.7505e-06
1.26614e-07
3.75089e-06
6.25892e-08
3.75119e-06
8.15186e-08
3.74269e-06
6.30675e-08
3.74009e-06
6.14405e-08
3.73933e-06
9.44695e-08
3.73616e-06
1.14245e-07
1.27169e-07
3.73719e-06
3.93488e-06
7.76999e-08
3.93013e-06
-1.77754e-07
3.93941e-06
2.44758e-07
3.92088e-06
-2.59556e-07
3.93832e-06
2.66763e-07
3.92657e-06
-1.01916e-08
3.93643e-06
2.42977e-08
3.92963e-06
1.1695e-07
3.92425e-06
-1.35109e-07
3.92372e-06
7.78987e-08
3.91924e-06
8.58496e-08
3.93452e-06
1.44543e-07
3.93035e-06
1.30784e-07
3.9288e-06
6.41453e-08
3.93044e-06
7.98809e-08
3.92221e-06
7.1291e-08
3.91841e-06
6.52463e-08
3.91869e-06
9.41873e-08
3.91654e-06
1.16389e-07
1.27006e-07
3.91671e-06
4.1231e-06
7.68518e-08
4.11785e-06
-1.72505e-07
4.12801e-06
2.34593e-07
4.10852e-06
-2.40065e-07
4.12666e-06
2.48623e-07
4.1144e-06
2.0727e-09
4.12409e-06
1.46064e-08
4.11814e-06
1.22899e-07
4.11134e-06
-1.28308e-07
4.11267e-06
7.65641e-08
4.10693e-06
9.15947e-08
4.12164e-06
1.29828e-07
4.11893e-06
1.33503e-07
4.11536e-06
6.77112e-08
4.11788e-06
7.73565e-08
4.11056e-06
7.86171e-08
4.10554e-06
7.02612e-08
4.10629e-06
9.34394e-08
4.10556e-06
1.17116e-07
1.27406e-07
4.10516e-06
4.32033e-06
7.58192e-08
4.3145e-06
-1.66675e-07
4.32559e-06
2.23507e-07
4.30525e-06
-2.19728e-07
4.32387e-06
2.30009e-07
4.31141e-06
1.45271e-08
4.32053e-06
5.4895e-09
4.31583e-06
1.27597e-07
4.30738e-06
-1.19855e-07
4.31046e-06
7.34797e-08
4.3039e-06
9.81536e-08
4.31746e-06
1.16273e-07
4.31652e-06
1.34445e-07
4.31111e-06
7.31183e-08
4.31392e-06
7.45461e-08
4.30803e-06
8.45052e-08
4.30203e-06
7.62639e-08
4.30264e-06
9.28237e-08
4.30342e-06
1.1634e-07
1.27818e-07
4.30301e-06
4.52702e-06
7.45778e-08
4.52053e-06
-1.60186e-07
4.53254e-06
2.11497e-07
4.51154e-06
-1.98734e-07
4.53033e-06
2.11219e-07
4.51806e-06
2.68021e-08
4.52618e-06
-2.6346e-09
4.52307e-06
1.30707e-07
4.5129e-06
-1.09681e-07
4.51742e-06
6.89567e-08
4.51058e-06
1.04991e-07
4.52246e-06
1.04394e-07
4.52342e-06
1.33491e-07
4.51658e-06
7.99584e-08
4.519e-06
7.21231e-08
4.51494e-06
8.85647e-08
4.50836e-06
8.28461e-08
4.50835e-06
9.28325e-08
4.51036e-06
1.14326e-07
1.2759e-07
4.51059e-06
4.74359e-06
7.31069e-08
4.73637e-06
-1.52971e-07
4.74927e-06
1.98602e-07
4.72788e-06
-1.77345e-07
4.7465e-06
1.92602e-07
4.73479e-06
3.85084e-08
4.74153e-06
-9.37839e-09
4.74021e-06
1.32028e-07
4.72846e-06
-9.79247e-08
4.73398e-06
6.34273e-08
4.72736e-06
1.11619e-07
4.73718e-06
9.45687e-08
4.73999e-06
1.30687e-07
4.73225e-06
8.76988e-08
4.7337e-06
7.06656e-08
4.7316e-06
9.0669e-08
4.72496e-06
8.94858e-08
4.72406e-06
9.37313e-08
4.72678e-06
1.11611e-07
1.26205e-07
4.72816e-06
4.97051e-06
7.13922e-08
4.96252e-06
-1.4498e-07
4.97622e-06
1.84907e-07
4.95477e-06
-1.55897e-07
4.97282e-06
1.74549e-07
4.96206e-06
4.92725e-08
4.96712e-06
-1.44391e-08
4.96761e-06
1.31531e-07
4.95458e-06
-8.48885e-08
4.96064e-06
5.73607e-08
4.95462e-06
1.17645e-07
4.96217e-06
8.70144e-08
4.96664e-06
1.26221e-07
4.95857e-06
9.57726e-08
4.95865e-06
7.05817e-08
4.95836e-06
9.09569e-08
4.95224e-06
9.56089e-08
4.95038e-06
9.55868e-08
4.95324e-06
1.08755e-07
1.23503e-07
4.95594e-06
5.20828e-06
6.94274e-08
5.1995e-06
-1.36196e-07
5.21385e-06
1.70552e-07
5.19274e-06
-1.34785e-07
5.20981e-06
1.57482e-07
5.20031e-06
5.87688e-08
5.20353e-06
-1.76553e-08
5.20567e-06
1.29388e-07
5.19177e-06
-7.09885e-08
5.19795e-06
5.11782e-08
5.19278e-06
1.22821e-07
5.19802e-06
8.17682e-08
5.20382e-06
1.20423e-07
5.196e-06
1.03598e-07
5.19451e-06
7.20684e-08
5.19562e-06
8.9845e-08
5.19056e-06
1.0067e-07
5.18791e-06
9.82369e-08
5.19043e-06
1.06235e-07
1.19733e-07
5.1942e-06
5.4574e-06
6.72171e-08
5.44785e-06
-1.26651e-07
5.46266e-06
1.55746e-07
5.44233e-06
-1.14454e-07
5.45801e-06
1.41804e-07
5.44998e-06
6.67951e-08
5.4514e-06
-1.90759e-08
5.45483e-06
1.25956e-07
5.44051e-06
-5.66681e-08
5.44648e-06
4.52145e-08
5.44233e-06
1.26969e-07
5.44527e-06
7.88265e-08
5.45206e-06
1.13635e-07
5.44503e-06
1.10628e-07
5.4419e-06
7.5196e-08
5.4439e-06
8.78429e-08
5.44031e-06
1.04267e-07
5.43716e-06
1.01384e-07
5.43907e-06
1.04327e-07
1.15419e-07
5.44338e-06
5.7184e-06
6.47776e-08
5.70819e-06
-1.16445e-07
5.72316e-06
1.40773e-07
5.70407e-06
-9.53558e-08
5.71803e-06
1.27844e-07
5.7115e-06
7.33261e-08
5.71137e-06
-1.89542e-08
5.71567e-06
1.21657e-07
5.70127e-06
-4.22619e-08
5.70679e-06
3.96953e-08
5.70382e-06
1.29938e-07
5.70452e-06
7.81215e-08
5.71185e-06
1.06303e-07
5.70619e-06
1.16294e-07
5.70147e-06
7.99118e-08
5.7038e-06
8.55108e-08
5.70192e-06
1.06151e-07
5.69864e-06
1.04667e-07
5.69985e-06
1.03116e-07
1.11123e-07
5.70414e-06
5.99183e-06
6.21377e-08
5.98113e-06
-1.05743e-07
5.99592e-06
1.25988e-07
5.97845e-06
-7.78854e-08
5.99053e-06
1.15763e-07
5.98534e-06
7.85125e-08
5.98403e-06
-1.76426e-08
5.98884e-06
1.16845e-07
5.97452e-06
-2.79433e-08
5.97947e-06
3.4749e-08
5.97779e-06
1.31611e-07
5.97642e-06
7.95001e-08
5.9838e-06
9.89149e-08
5.97988e-06
1.20216e-07
5.97396e-06
8.58363e-08
5.97596e-06
8.35083e-08
5.97586e-06
1.06253e-07
5.97283e-06
1.07695e-07
5.97339e-06
1.02561e-07
1.07199e-07
5.97731e-06
6.27829e-06
5.93385e-08
6.2673e-06
-9.47531e-08
6.2815e-06
1.11787e-07
6.26594e-06
-6.23298e-08
6.27621e-06
1.05493e-07
6.27208e-06
8.26448e-08
6.26989e-06
-1.54518e-08
6.27505e-06
1.1169e-07
6.26085e-06
-1.37472e-08
6.26506e-06
3.05376e-08
6.2649e-06
1.31776e-07
6.26164e-06
8.2759e-08
6.26851e-06
9.20431e-08
6.26662e-06
1.22104e-07
6.26e-06
9.24568e-08
6.26114e-06
8.23653e-08
6.26264e-06
1.04761e-07
6.26027e-06
1.10062e-07
6.2603e-06
1.02528e-07
1.03752e-07
6.26375e-06
6.57838e-06
5.64312e-08
6.56732e-06
-8.3701e-08
6.58054e-06
9.85706e-08
6.56704e-06
-4.88297e-08
6.5758e-06
9.67358e-08
6.57236e-06
8.60846e-08
6.56949e-06
-1.25871e-08
6.57495e-06
1.06232e-07
6.56092e-06
2.85361e-10
6.56414e-06
2.73125e-08
6.56568e-06
1.30243e-07
6.56098e-06
8.74587e-08
6.56664e-06
8.63816e-08
6.56691e-06
1.21829e-07
6.56022e-06
9.91477e-08
6.56017e-06
8.24158e-08
6.56284e-06
1.0209e-07
6.56151e-06
1.11398e-07
6.56118e-06
1.02855e-07
1.00731e-07
6.5642e-06
6.89275e-06
5.34721e-08
6.88186e-06
-7.28071e-08
6.89372e-06
8.67032e-08
6.88227e-06
-3.73753e-08
6.88996e-06
8.90483e-08
6.8869e-06
8.91362e-08
6.88339e-06
-9.07016e-09
6.88922e-06
1.00399e-07
6.87546e-06
1.40466e-08
6.87737e-06
2.54051e-08
6.88066e-06
1.26948e-07
6.87513e-06
9.29896e-08
6.87912e-06
8.23948e-08
6.88128e-06
1.19668e-07
6.87519e-06
1.05243e-07
6.87384e-06
8.37568e-08
6.87716e-06
9.87703e-08
6.87714e-06
1.11425e-07
6.8766e-06
1.03387e-07
9.8055e-08
6.87928e-06
7.22209e-06
5.05178e-08
7.21155e-06
-6.22698e-08
7.2218e-06
7.64516e-08
7.21223e-06
-2.77965e-08
7.21935e-06
8.19247e-08
7.21651e-06
9.1979e-08
7.2122e-06
-4.76839e-09
7.21851e-06
9.40972e-08
7.20526e-06
2.72907e-08
7.2055e-06
2.51635e-08
7.21035e-06
1.22101e-07
7.20483e-06
9.85105e-08
7.20683e-06
8.03971e-08
7.21036e-06
1.16134e-07
7.20548e-06
1.10123e-07
7.20296e-06
8.62744e-08
7.20637e-06
9.53674e-08
7.20779e-06
1.10005e-07
7.20723e-06
1.03939e-07
9.57865e-08
7.2095e-06
7.56712e-06
4.76199e-08
7.55711e-06
-5.22553e-08
7.56563e-06
6.79347e-08
7.55762e-06
-1.97901e-08
7.56458e-06
7.49657e-08
7.56201e-06
9.45492e-08
7.55666e-06
5.75424e-10
7.56341e-06
8.73537e-08
7.55115e-06
3.95511e-08
7.54937e-06
2.69444e-08
7.55543e-06
1.16039e-07
7.55063e-06
1.03309e-07
7.55068e-06
8.0344e-08
7.55491e-06
1.11907e-07
7.55166e-06
1.13374e-07
7.5483e-06
8.96394e-08
7.55127e-06
9.23884e-08
7.55403e-06
1.07254e-07
7.5539e-06
1.0407e-07
9.42075e-08
7.55547e-06
7.92861e-06
4.48179e-08
7.91924e-06
-4.28809e-08
7.92615e-06
6.10243e-08
7.91924e-06
-1.28819e-08
7.92624e-06
6.79715e-08
7.92424e-06
9.65492e-08
7.91762e-06
7.192e-09
7.92453e-06
8.04438e-08
7.9138e-06
5.02802e-08
7.90994e-06
3.08038e-08
7.91663e-06
1.09349e-07
7.91307e-06
1.06874e-07
7.9116e-06
8.18073e-08
7.91585e-06
1.07658e-07
7.91422e-06
1.15001e-07
7.91068e-06
9.31807e-08
7.9128e-06
9.02693e-08
7.91647e-06
1.0358e-07
7.91735e-06
1.03192e-07
9.33981e-08
7.91816e-06
8.30736e-06
4.2136e-08
8.29869e-06
-3.42096e-08
8.30426e-06
5.54604e-08
8.29791e-06
-6.53774e-09
8.30497e-06
6.09136e-08
8.30398e-06
9.75351e-08
8.29599e-06
1.51869e-08
8.30258e-06
7.38498e-08
8.29385e-06
5.90119e-08
8.28827e-06
3.63872e-08
8.29473e-06
1.02888e-07
8.2928e-06
1.08805e-07
8.29041e-06
8.41909e-08
8.29409e-06
1.03983e-07
8.29394e-06
1.1515e-07
8.29075e-06
9.63655e-08
8.29195e-06
8.90752e-08
8.29595e-06
9.95743e-08
8.29802e-06
1.01128e-07
9.26896e-08
8.29873e-06
8.70421e-06
3.95842e-08
8.69628e-06
-2.62711e-08
8.70075e-06
5.09813e-08
8.69455e-06
-3.35214e-10
8.70151e-06
5.39584e-08
8.702e-06
9.70456e-08
8.69282e-06
2.43658e-08
8.6984e-06
6.82632e-08
8.69195e-06
6.54618e-08
8.68523e-06
4.31121e-08
8.69076e-06
9.73578e-08
8.69055e-06
1.09018e-07
8.68776e-06
8.69743e-08
8.69068e-06
1.01063e-07
8.69171e-06
1.14121e-07
8.68911e-06
9.89635e-08
8.68971e-06
8.84838e-08
8.69345e-06
9.58262e-08
8.69646e-06
9.81197e-08
9.13776e-08
8.69777e-06
9.12004e-06
3.71585e-08
9.11282e-06
-1.9045e-08
9.11648e-06
4.73242e-08
9.11019e-06
5.95139e-09
9.11669e-06
4.74588e-08
9.11892e-06
9.48114e-08
9.10914e-06
3.4145e-08
9.11301e-06
6.44e-08
9.10871e-06
6.97578e-08
9.10168e-06
5.01436e-08
9.10595e-06
9.30897e-08
9.10692e-06
1.08043e-07
9.10434e-06
8.95536e-08
9.10669e-06
9.87156e-08
9.10844e-06
1.12377e-07
9.10649e-06
1.00905e-07
9.10681e-06
8.81657e-08
9.1102e-06
9.24353e-08
9.11353e-06
9.47937e-08
8.92e-08
9.11571e-06
9.55578e-06
3.48407e-08
9.5492e-06
-1.24701e-08
9.55228e-06
4.42519e-08
9.54592e-06
1.23101e-08
9.55149e-06
4.18883e-08
9.5554e-06
9.08934e-08
9.54587e-06
4.36824e-08
9.54755e-06
6.27155e-08
9.54498e-06
7.2328e-08
9.53832e-06
5.68073e-08
9.5413e-06
9.01118e-08
9.54294e-06
1.06402e-07
9.54101e-06
9.14826e-08
9.54283e-06
9.68886e-08
9.54513e-06
1.10085e-07
9.54396e-06
1.0207e-07
9.54385e-06
8.82801e-08
9.54721e-06
8.90705e-08
9.55035e-06
9.16587e-08
8.64305e-08
9.55312e-06
1.00124e-05
3.26078e-08
1.00064e-05
-6.45726e-09
1.00091e-05
4.15515e-08
1.00028e-05
1.85795e-08
1.00069e-05
3.77613e-08
1.00123e-05
8.55441e-08
1.00038e-05
5.20963e-08
1.00033e-05
6.32283e-08
1.00017e-05
7.40105e-08
9.99598e-06
6.24794e-08
9.99779e-06
8.83049e-08
9.99986e-06
1.04332e-07
9.99849e-06
9.28519e-08
9.99993e-06
9.54466e-08
1.00028e-05
1.07198e-07
1.00023e-05
1.02544e-07
1.0002e-05
8.86507e-08
1.0005e-05
8.59961e-08
1.00083e-05
8.83744e-08
8.37406e-08
1.0011e-05
1.04908e-05
3.04312e-08
1.04853e-05
-9.21141e-10
1.04877e-05
3.90897e-08
1.04818e-05
2.45386e-08
1.04841e-05
3.54347e-08
1.04904e-05
7.92534e-08
1.04839e-05
5.86137e-08
1.04815e-05
6.55665e-08
1.048e-05
7.55728e-08
1.04754e-05
6.707e-08
1.04766e-05
8.71409e-08
1.04787e-05
1.02195e-07
1.04778e-05
9.37375e-08
1.04791e-05
9.41689e-08
1.04822e-05
1.04065e-07
1.04827e-05
1.02017e-07
1.04822e-05
8.91608e-08
1.04847e-05
8.34979e-08
1.04885e-05
8.46498e-08
8.1375e-08
1.04908e-05
1.09922e-05
2.82849e-08
1.0987e-05
4.23119e-09
1.09893e-05
3.67797e-08
1.09839e-05
2.99223e-08
1.09843e-05
3.50452e-08
1.09909e-05
7.26879e-08
1.09867e-05
6.2824e-08
1.09834e-05
6.88943e-08
1.09813e-05
7.76356e-08
1.09775e-05
7.08601e-08
1.09785e-05
8.61034e-08
1.09806e-05
1.0012e-07
1.09802e-05
9.41583e-08
1.09812e-05
9.31228e-08
1.09844e-05
1.00913e-07
1.0986e-05
1.00402e-07
1.09857e-05
8.94774e-08
1.09875e-05
8.16836e-08
1.09913e-05
8.08346e-08
7.87134e-08
1.0994e-05
1.15175e-05
2.61517e-08
1.15127e-05
9.05651e-09
1.15148e-05
3.46359e-08
1.15103e-05
3.44755e-08
1.1509e-05
3.63546e-08
1.1515e-05
6.66358e-08
1.15131e-05
6.47764e-08
1.15097e-05
7.22123e-08
1.15069e-05
8.04418e-08
1.15035e-05
7.42577e-08
1.15046e-05
8.50508e-08
1.15068e-05
9.78602e-08
1.15068e-05
9.42194e-08
1.15076e-05
9.23077e-08
1.15107e-05
9.78179e-08
1.15129e-05
9.81734e-08
1.15134e-05
8.89887e-08
1.15145e-05
8.05671e-08
1.15179e-05
7.74754e-08
7.54255e-08
1.15212e-05
1.20679e-05
2.40313e-08
1.20634e-05
1.35854e-08
1.20653e-05
3.27564e-08
1.20618e-05
3.79321e-08
1.20592e-05
3.89869e-08
1.2064e-05
6.17962e-08
1.2064e-05
6.48454e-08
1.20616e-05
7.45963e-08
1.20583e-05
8.37362e-08
1.20547e-05
7.78338e-08
1.20557e-05
8.40681e-08
1.20584e-05
9.51388e-08
1.20588e-05
9.38434e-08
1.20595e-05
9.16413e-08
1.20623e-05
9.4997e-08
1.20649e-05
9.55851e-08
1.20661e-05
8.77572e-08
1.20672e-05
7.94955e-08
1.20696e-05
7.50607e-08
7.18453e-08
1.20732e-05
1.26447e-05
2.19437e-08
1.26405e-05
1.77926e-08
1.26419e-05
3.1281e-08
1.26397e-05
4.01535e-08
1.26363e-05
4.24073e-08
1.26394e-05
5.86816e-08
1.26407e-05
6.35309e-08
1.26397e-05
7.5638e-08
1.26366e-05
8.68546e-08
1.26326e-05
8.18377e-08
1.26331e-05
8.35011e-08
1.26363e-05
9.19895e-08
1.26375e-05
9.26243e-08
1.26381e-05
9.10373e-08
1.26405e-05
9.26325e-08
1.26433e-05
9.2734e-08
1.26449e-05
8.6233e-08
1.26464e-05
7.7899e-08
1.26481e-05
7.33702e-08
6.87671e-08
1.26512e-05
1.32489e-05
1.99347e-08
1.32451e-05
2.15987e-08
1.32461e-05
3.03569e-08
1.32451e-05
4.1126e-08
1.32414e-05
4.60631e-08
1.32428e-05
5.73473e-08
1.32446e-05
6.16931e-08
1.32451e-05
7.51493e-08
1.32429e-05
8.9057e-08
1.32386e-05
8.61711e-08
1.32382e-05
8.38279e-08
1.32416e-05
8.86334e-08
1.32438e-05
9.03639e-08
1.32448e-05
9.00859e-08
1.32467e-05
9.07334e-08
1.32495e-05
8.99794e-08
1.32513e-05
8.44085e-08
1.32531e-05
7.60677e-08
1.3255e-05
7.1466e-08
6.67249e-08
1.32571e-05
1.3882e-05
1.807e-08
1.38788e-05
2.4873e-08
1.38789e-05
3.0162e-08
1.38791e-05
4.0951e-08
1.38758e-05
4.93544e-08
1.38755e-05
5.76882e-08
1.38771e-05
6.01112e-08
1.3879e-05
7.32461e-08
1.38782e-05
8.98286e-08
1.3874e-05
9.0367e-08
1.38726e-05
8.52527e-08
1.38756e-05
8.55788e-08
1.38789e-05
8.71389e-08
1.38807e-05
8.8276e-08
1.38823e-05
8.91288e-08
1.38847e-05
8.76028e-08
1.38865e-05
8.25226e-08
1.38885e-05
7.41119e-08
1.3891e-05
6.89634e-08
6.52259e-08
1.38925e-05
1.45453e-05
1.64269e-08
1.45427e-05
2.74968e-08
1.45421e-05
3.07453e-08
1.45431e-05
3.99353e-08
1.45407e-05
5.17586e-08
1.45391e-05
5.93194e-08
1.45398e-05
5.93856e-08
1.45427e-05
7.03652e-08
1.45436e-05
8.89153e-08
1.45402e-05
9.37611e-08
1.45378e-05
8.76237e-08
1.45399e-05
8.35116e-08
1.45438e-05
8.32369e-08
1.45467e-05
8.53974e-08
1.45485e-05
8.72962e-08
1.45505e-05
8.56466e-08
1.45522e-05
8.08237e-08
1.45538e-05
7.24628e-08
1.45569e-05
6.58903e-08
6.33348e-08
1.45588e-05
1.52402e-05
1.50816e-08
1.52384e-05
2.9357e-08
1.5237e-05
3.20795e-08
1.52385e-05
3.84776e-08
1.52373e-05
5.29148e-08
1.5235e-05
6.16861e-08
1.52345e-05
5.98269e-08
1.52377e-05
6.71825e-08
1.52403e-05
8.63336e-08
1.52384e-05
9.56709e-08
1.52354e-05
9.05837e-08
1.52362e-05
8.27268e-08
1.52401e-05
7.93671e-08
1.5244e-05
8.14826e-08
1.52466e-05
8.47313e-08
1.52483e-05
8.39414e-08
1.52499e-05
7.92238e-08
1.52509e-05
7.14531e-08
1.52538e-05
6.29492e-08
6.04586e-08
1.52567e-05
1.59683e-05
1.40914e-08
1.59673e-05
3.0382e-08
1.59653e-05
3.40276e-08
1.59668e-05
3.70643e-08
1.5967e-05
5.265e-08
1.59646e-05
6.41443e-08
1.5963e-05
6.14142e-08
1.59657e-05
6.44499e-08
1.59697e-05
8.23496e-08
1.59697e-05
9.5662e-08
1.59668e-05
9.35358e-08
1.59663e-05
8.31655e-08
1.59694e-05
7.62808e-08
1.5974e-05
7.69071e-08
1.59776e-05
8.11028e-08
1.59795e-05
8.20838e-08
1.5981e-05
7.76709e-08
1.59817e-05
7.07962e-08
1.59835e-05
6.11595e-08
5.67741e-08
1.59871e-05
1.67312e-05
1.34865e-08
1.6731e-05
3.05979e-08
1.67287e-05
3.63034e-08
1.67296e-05
3.61508e-08
1.67312e-05
5.10925e-08
1.67294e-05
6.59584e-08
1.67268e-05
6.39929e-08
1.67285e-05
6.27241e-08
1.67334e-05
7.74522e-08
1.67355e-05
9.36271e-08
1.67334e-05
9.56333e-08
1.67318e-05
8.47053e-08
1.67338e-05
7.42926e-08
1.67383e-05
7.23625e-08
1.6743e-05
7.64409e-08
1.67455e-05
7.9548e-08
1.6747e-05
7.61926e-08
1.67478e-05
6.99829e-08
1.67483e-05
6.07147e-08
5.34261e-08
1.67516e-05
1.75306e-05
1.32512e-08
1.75311e-05
3.01155e-08
1.75288e-05
3.85638e-08
1.75289e-05
3.60719e-08
1.75314e-05
4.8602e-08
1.75308e-05
6.65345e-08
1.75277e-05
6.71199e-08
1.75281e-05
6.23062e-08
1.75332e-05
7.2329e-08
1.7537e-05
8.98071e-08
1.75366e-05
9.607e-08
1.75344e-05
8.69381e-08
1.75352e-05
7.35162e-08
1.7539e-05
6.85001e-08
1.75443e-05
7.11467e-08
1.7548e-05
7.59011e-08
1.75495e-05
7.46183e-08
1.75506e-05
6.88833e-08
1.75506e-05
6.07835e-08
5.15801e-08
1.75524e-05
1.83683e-05
1.3326e-08
1.83693e-05
2.91367e-08
1.83674e-05
4.04513e-08
1.83665e-05
3.69407e-08
1.83694e-05
4.56907e-08
1.83703e-05
6.5604e-08
1.83673e-05
7.01579e-08
1.83664e-05
6.31867e-08
1.8371e-05
6.77301e-08
1.83762e-05
8.46014e-08
1.83778e-05
9.45119e-08
1.83757e-05
8.90166e-08
1.83753e-05
7.3937e-08
1.83781e-05
6.56434e-08
1.83834e-05
6.59007e-08
1.83881e-05
7.11399e-08
1.83903e-05
7.24598e-08
1.83916e-05
6.76336e-08
1.83917e-05
6.06139e-08
5.11879e-08
1.83921e-05
1.92461e-05
1.36088e-08
1.92473e-05
2.79205e-08
1.92461e-05
4.16654e-08
1.92444e-05
3.86136e-08
1.92471e-05
4.30115e-08
1.92495e-05
6.31814e-08
1.92474e-05
7.23042e-08
1.92454e-05
6.51747e-08
1.92489e-05
6.4281e-08
1.92549e-05
7.85236e-08
1.92584e-05
9.10518e-08
1.92574e-05
8.99766e-08
1.9256e-05
7.53188e-08
1.92577e-05
6.39433e-08
1.92623e-05
6.1358e-08
1.92679e-05
6.55709e-08