/*--------------------------------*- C++ -*----------------------------------*\
| =========                 |                                                 |
| \\      /  F ield         | OpenFOAM: The Open Source CFD Toolbox           |
|  \\    /   O peration     | Version:  3.0.1                                 |
|   \\  /    A nd           | Web:      www.OpenFOAM.org                      |
|    \\/     M anipulation  |                                                 |
\*---------------------------------------------------------------------------*/
FoamFile
{
    version     2.0;
    format      ascii;
    class       volVectorField;
    location    "0.3";
    object      U;
}
// * * * * * * * * * * * * * * * * * * * * * * * * * * * * * * * * * * * * * //

dimensions      [0 1 -1 0 0 0 0];

internalField   nonuniform List<vector> 
9600
(
(0.870386 0.000404825 0)
(1.11693 -0.00233799 0)
(0.892466 0.00403861 0)
(1.10073 -0.0071129 0)
(0.890768 0.0088773 0)
(1.14977 -0.00591621 0)
(0.773392 0.00206062 0)
(1.17867 0.00572144 0)
(0.836159 -0.00670922 0)
(1.13711 0.0011853 0)
(0.882339 5.02198e-05 0)
(1.09587 0.00996916 0)
(0.872914 -4.22912e-05 0)
(1.09767 0.00591551 0)
(0.875755 -0.00101613 0)
(1.10976 0.00216619 0)
(0.877046 -0.00191578 0)
(1.1181 0.0011246 0)
(0.865454 -0.000752594 0)
(1.12153 0.000568396 0)
(0.879508 0.000420317 0)
(1.10675 -0.00234145 0)
(0.900814 0.00400842 0)
(1.08928 -0.00690569 0)
(0.898141 0.00820725 0)
(1.13326 -0.00442106 0)
(0.790814 0.00153763 0)
(1.15536 0.005273 0)
(0.863852 -0.00643723 0)
(1.11624 0.000793535 0)
(0.907722 0.000499026 0)
(1.07296 0.0103427 0)
(0.910353 -0.000238565 0)
(1.06251 0.00592456 0)
(0.928549 -0.00128925 0)
(1.05675 0.00207822 0)
(0.949447 -0.00201247 0)
(1.03956 0.0011118 0)
(0.968942 4.13668e-05 0)
(1.00393 0.000700078 0)
(0.896861 0.000451599 0)
(1.08816 -0.00235969 0)
(0.916927 0.0040052 0)
(1.07084 -0.00674512 0)
(0.91343 0.00763155 0)
(1.1075 -0.00320783 0)
(0.827339 0.000988006 0)
(1.11436 0.00463841 0)
(0.907784 -0.0061599 0)
(1.07874 0.00035696 0)
(0.944078 0.00107621 0)
(1.03819 0.0103797 0)
(0.951187 -4.93663e-05 0)
(1.02173 0.00553511 0)
(0.970419 -0.00105177 0)
(1.01392 0.00148993 0)
(0.985852 -0.00141103 0)
(1.00187 0.000359762 0)
(0.993067 0.00136637 0)
(0.986609 0.000866327 0)
(0.919535 0.000503345 0)
(1.06483 -0.00239253 0)
(0.937491 0.00402315 0)
(1.04965 -0.00661086 0)
(0.933845 0.00723251 0)
(1.07805 -0.00234882 0)
(0.874113 0.000795224 0)
(1.06933 0.0038603 0)
(0.951128 -0.00585424 0)
(1.04089 2.93852e-06 0)
(0.972076 0.00159998 0)
(1.01096 0.0102481 0)
(0.974871 0.000251629 0)
(0.997922 0.00511546 0)
(0.985907 -0.000857482 0)
(0.99685 0.00111908 0)
(0.991602 -0.00114958 0)
(0.992852 0.000146279 0)
(0.991537 0.00191157 0)
(0.987079 0.0015653 0)
(0.94341 0.000573128 0)
(1.0416 -0.00243556 0)
(0.958099 0.00404757 0)
(1.03006 -0.00649403 0)
(0.954736 0.00692457 0)
(1.05066 -0.00177693 0)
(0.918694 0.000874805 0)
(1.03356 0.00305863 0)
(0.981261 -0.00558121 0)
(1.01499 -0.000179175 0)
(0.986262 0.00198297 0)
(0.997744 0.0101781 0)
(0.985575 0.00053414 0)
(0.989975 0.0048082 0)
(0.990029 -0.000709745 0)
(0.99289 0.000859922 0)
(0.991322 -0.000914305 0)
(0.990874 -1.6623e-05 0)
(0.990166 0.00237945 0)
(0.987131 0.00212405 0)
(0.964556 0.000649546 0)
(1.02266 -0.00247791 0)
(0.975157 0.00406618 0)
(1.01519 -0.00640041 0)
(0.971985 0.00669816 0)
(1.02953 -0.0014365 0)
(0.95286 0.00105237 0)
(1.01239 0.00238689 0)
(0.996457 -0.00538755 0)
(1.00207 -0.000193586 0)
(0.991537 0.00224251 0)
(0.994338 0.0101274 0)
(0.991411 0.000765884 0)
(0.990096 0.00459165 0)
(0.99243 -0.000575092 0)
(0.9933 0.000650332 0)
(0.991921 -0.000671746 0)
(0.990907 -0.000150397 0)
(0.990371 0.00275342 0)
(0.987996 0.00269854 0)
(0.980534 0.000718382 0)
(1.00998 -0.00250814 0)
(0.987067 0.00407105 0)
(1.00595 -0.00632142 0)
(0.983739 0.00654339 0)
(1.01581 -0.0012684 0)
(0.974885 0.00122855 0)
(1.00318 0.00191694 0)
(1.0016 -0.00524724 0)
(0.997001 -0.000131285 0)
(0.993323 0.00239955 0)
(0.995208 0.0100172 0)
(0.995578 0.000965636 0)
(0.992926 0.00441286 0)
(0.994977 -0.000414378 0)
(0.994876 0.000471416 0)
(0.993118 -0.000428984 0)
(0.991753 -0.000223506 0)
(0.990992 0.0030348 0)
(0.989233 0.00328867 0)
(0.990874 0.000769546 0)
(1.00306 -0.00252104 0)
(0.994177 0.00406121 0)
(1.00128 -0.00624569 0)
(0.990442 0.00643355 0)
(1.00818 -0.00120636 0)
(0.987205 0.00136685 0)
(1.00049 0.00162489 0)
(1.00216 -0.0051208 0)
(0.995069 -5.6263e-05 0)
(0.993999 0.00247986 0)
(0.996986 0.00983764 0)
(0.998462 0.00114722 0)
(0.995784 0.00424318 0)
(0.997244 -0.000212081 0)
(0.996429 0.00032534 0)
(0.994219 -0.000176678 0)
(0.992635 -0.000220547 0)
(0.991591 0.00324593 0)
(0.990182 0.00388063 0)
(0.996611 0.000800642 0)
(1.00006 -0.00251852 0)
(0.997858 0.00404026 0)
(0.999433 -0.00616634 0)
(0.993687 0.00634803 0)
(1.00447 -0.00119985 0)
(0.993321 0.00146228 0)
(1.00027 0.00145128 0)
(1.00146 -0.00498254 0)
(0.994077 4.18985e-06 0)
(0.99414 0.00250892 0)
(0.998235 0.00960499 0)
(1.00011 0.00131757 0)
(0.997731 0.00407257 0)
(0.998849 1.45489e-05 0)
(0.997601 0.000223155 0)
(0.995025 8.39782e-05 0)
(0.993311 -0.000138189 0)
(0.992085 0.00339923 0)
(0.990815 0.00446461 0)
(0.999347 0.000815579 0)
(0.999067 -0.00250575 0)
(0.999542 0.0040123 0)
(0.998921 -0.00608003 0)
(0.995068 0.0062749 0)
(1.00285 -0.00121971 0)
(0.996061 0.00152523 0)
(1.00061 0.00134547 0)
(1.00081 -0.00482487 0)
(0.993431 5.35019e-05 0)
(0.99397 0.00250719 0)
(0.998716 0.00933463 0)
(1.0008 0.00148115 0)
(0.998785 0.00389695 0)
(0.999793 0.000255654 0)
(0.998393 0.000154723 0)
(0.995587 0.000332277 0)
(0.993823 2.34251e-05 0)
(0.99253 0.00350501 0)
(0.991319 0.00502683 0)
(1.00048 0.000820558 0)
(0.998833 -0.00248739 0)
(1.00023 0.00397972 0)
(0.998873 -0.00598587 0)
(0.995644 0.00620608 0)
(1.00215 -0.00124942 0)
(0.997178 0.0015676 0)
(1.00092 0.00127507 0)
(1.00045 -0.00465114 0)
(0.993039 0.000103182 0)
(0.993734 0.00249021 0)
(0.998722 0.00904063 0)
(1.00096 0.0016339 0)
(0.999269 0.00371552 0)
(1.00027 0.000496673 0)
(0.998893 0.000117147 0)
(0.995983 0.000548171 0)
(0.994236 0.000252247 0)
(0.99297 0.00357841 0)
(0.991815 0.00554649 0)
(1.00088 0.000820762 0)
(0.998797 -0.00246617 0)
(1.00049 0.00394337 0)
(0.998913 -0.00588456 0)
(0.995944 0.00613619 0)
(1.00183 -0.00127884 0)
(0.997589 0.00159533 0)
(1.0011 0.00122273 0)
(1.0003 -0.00446817 0)
(0.99286 0.000160687 0)
(0.993601 0.00246653 0)
(0.998588 0.00873279 0)
(1.00089 0.001774 0)
(0.999461 0.0035358 0)
(1.00046 0.000717962 0)
(0.999176 0.00011222 0)
(0.996251 0.000737913 0)
(0.994566 0.000531335 0)
(0.993396 0.00363726 0)
(0.992323 0.00599951 0)
(1.001 0.000819258 0)
(0.998792 -0.00244324 0)
(1.00055 0.00390364 0)
(0.99893 -0.00577718 0)
(0.996168 0.0060619 0)
(1.00165 -0.00130214 0)
(0.997723 0.00161046 0)
(1.00115 0.0011819 0)
(1.00023 -0.00428263 0)
(0.992835 0.000228651 0)
(0.993625 0.00243778 0)
(0.998495 0.00841712 0)
(1.00078 0.00190325 0)
(0.999518 0.00336432 0)
(1.00048 0.000918646 0)
(0.999299 0.000135156 0)
(0.996403 0.000903838 0)
(0.994813 0.000837198 0)
(0.993786 0.00369987 0)
(0.992819 0.00637088 0)
(1.00101 0.000817435 0)
(0.998799 -0.00241903 0)
(1.00054 0.00386096 0)
(0.998917 -0.00566449 0)
(0.996362 0.00598084 0)
(1.00156 -0.00131614 0)
(0.997766 0.00161438 0)
(1.00111 0.00115088 0)
(1.00018 -0.00409953 0)
(0.992912 0.00030623 0)
(0.993784 0.00240231 0)
(0.99849 0.00810182 0)
(1.00068 0.00201991 0)
(0.999517 0.00320287 0)
(1.0004 0.00110097 0)
(0.99931 0.000185173 0)
(0.996465 0.00105146 0)
(0.994987 0.00114737 0)
(0.994131 0.00377927 0)
(0.993281 0.0066595 0)
(1.00097 0.000815775 0)
(0.998823 -0.0023937 0)
(1.0005 0.00381572 0)
(0.998896 -0.0055466 0)
(0.996525 0.00589112 0)
(1.00152 -0.0013192 0)
(0.997791 0.00160802 0)
(1.00101 0.00113114 0)
(1.00013 -0.00392426 0)
(0.993047 0.000392533 0)
(0.994028 0.00235815 0)
(0.99855 0.0077914 0)
(1.00061 0.00212766 0)
(0.999493 0.00305843 0)
(1.00027 0.00126757 0)
(0.999261 0.000261939 0)
(0.996474 0.00119316 0)
(0.995111 0.00144672 0)
(0.99444 0.00387686 0)
(0.993706 0.00687508 0)
(1.00092 0.000814362 0)
(0.998862 -0.00236731 0)
(1.00044 0.00376806 0)
(0.998888 -0.00542303 0)
(0.996653 0.00579135 0)
(1.00151 -0.0013107 0)
(0.997823 0.00159184 0)
(1.00087 0.00112507 0)
(1.00008 -0.00376035 0)
(0.993212 0.000488118 0)
(0.994306 0.0023025 0)
(0.998634 0.00748913 0)
(1.00054 0.00222648 0)
(0.999466 0.0029333 0)
(1.00013 0.00142124 0)
(0.999192 0.000356759 0)
(0.996469 0.00133782 0)
(0.995214 0.00173379 0)
(0.994731 0.00398537 0)
(0.994104 0.00703183 0)
(1.00088 0.000813114 0)
(0.998909 -0.00233985 0)
(1.00037 0.00371786 0)
(0.998899 -0.00529316 0)
(0.996749 0.00568076 0)
(1.00151 -0.00129004 0)
(0.997867 0.00156515 0)
(1.00072 0.00113332 0)
(1.00004 -0.00361161 0)
(0.993386 0.000594517 0)
(0.994578 0.00223555 0)
(0.99871 0.00719485 0)
(1.00046 0.00231832 0)
(0.99944 0.0028222 0)
(0.999993 0.00156999 0)
(0.999133 0.000456795 0)
(0.996478 0.0014894 0)
(0.995318 0.00201212 0)
(0.995016 0.00409119 0)
(0.994486 0.00713725 0)
(1.00084 0.000811946 0)
(0.99896 -0.00231133 0)
(1.00031 0.00366486 0)
(0.998928 -0.00515624 0)
(0.996826 0.0055588 0)
(1.00149 -0.00125651 0)
(0.997919 0.00152613 0)
(1.00057 0.00115832 0)
(1.00002 -0.00347997 0)
(0.99356 0.000711044 0)
(0.994828 0.00216091 0)
(0.998762 0.00690604 0)
(1.00037 0.00240826 0)
(0.999417 0.00271776 0)
(0.999874 0.00172272 0)
(0.999094 0.000555065 0)
(0.996517 0.00164618 0)
(0.995433 0.00228503 0)
(0.995304 0.00417928 0)
(0.994861 0.00718897 0)
(1.0008 0.000810714 0)
(0.999012 -0.00228154 0)
(1.00025 0.00360853 0)
(0.998969 -0.00501149 0)
(0.996895 0.00542544 0)
(1.00144 -0.00120993 0)
(0.997975 0.00147363 0)
(1.00044 0.00120162 0)
(1.00001 -0.00336427 0)
(0.993732 0.000837153 0)
(0.995052 0.00208069 0)
(0.998791 0.00662014 0)
(1.00025 0.00249982 0)
(0.999397 0.00261233 0)
(0.999771 0.00188248 0)
(0.999074 0.000655319 0)
(0.996586 0.00179871 0)
(0.995562 0.00256314 0)
(0.995595 0.00425049 0)
(0.995238 0.00718617 0)
(1.00078 0.000809272 0)
(0.999064 -0.00225036 0)
(1.00019 0.00354856 0)
(0.999015 -0.00485846 0)
(0.996964 0.00528045 0)
(1.00139 -0.0011484 0)
(0.998035 0.00140474 0)
(1.00031 0.00126455 0)
(1.00001 -0.00326529 0)
(0.993903 0.000971689 0)
(0.995257 0.00199941 0)
(0.998807 0.00633314 0)
(1.00012 0.00259812 0)
(0.999377 0.00249786 0)
(0.999681 0.00205206 0)
(0.999066 0.000767169 0)
(0.996683 0.00193215 0)
(0.995702 0.00285553 0)
(0.995885 0.00432366 0)
(0.995618 0.00713426 0)
(1.00075 0.000807559 0)
(0.999116 -0.00221774 0)
(1.00014 0.00348468 0)
(0.999062 -0.00469639 0)
(0.997035 0.00512275 0)
(1.00132 -0.00107004 0)
(0.998098 0.00131751 0)
(1.00019 0.00134623 0)
(1.00002 -0.00317975 0)
(0.994075 0.00110988 0)
(0.995449 0.0019227 0)
(0.998819 0.00603857 0)
(0.999983 0.00271084 0)
(0.99936 0.00237074 0)
(0.999602 0.00222669 0)
(0.999064 0.000898299 0)
(0.996805 0.00203005 0)
(0.995851 0.00315474 0)
(0.996167 0.00441692 0)
(0.996004 0.00703822 0)
(1.00072 0.000805571 0)
(0.999169 -0.00218359 0)
(1.00009 0.00341627 0)
(0.99911 -0.0045244 0)
(0.997108 0.00495216 0)
(1.00125 -0.000975126 0)
(0.998165 0.00121349 0)
(1.00007 0.00144272 0)
(1.00004 -0.00310583 0)
(0.994249 0.00124919 0)
(0.995631 0.00185504 0)
(0.998837 0.00572755 0)
(0.999836 0.00284114 0)
(0.999345 0.00223203 0)
(0.999536 0.00239105 0)
(0.999059 0.0010608 0)
(0.996947 0.00208845 0)
(0.996011 0.0034376 0)
(0.996435 0.0045366 0)
(0.99639 0.00690126 0)
(1.0007 0.000802987 0)
(0.999223 -0.00214743 0)
(1.00004 0.00334245 0)
(0.999157 -0.00434164 0)
(0.997184 0.0047677 0)
(1.00117 -0.00086098 0)
(0.998238 0.00108993 0)
(0.999951 0.00155618 0)
(1.00006 -0.00304147 0)
(0.994425 0.0013834 0)
(0.995805 0.00180642 0)
(0.998866 0.00539451 0)
(0.999686 0.0029895 0)
(0.99933 0.00209724 0)
(0.999485 0.00253413 0)
(0.99905 0.00126874 0)
(0.997104 0.00212201 0)
(0.996185 0.00368163 0)
(0.996685 0.00469038 0)
(0.996773 0.00673415 0)
(1.00067 0.000799827 0)
(0.999277 -0.00210892 0)
(0.999995 0.00326227 0)
(0.999205 -0.00414714 0)
(0.997262 0.00456801 0)
(1.00109 -0.000728852 0)
(0.998316 0.00095191 0)
(0.999834 0.0016788 0)
(1.00007 -0.00297856 0)
(0.994605 0.00150372 0)
(0.995969 0.00179039 0)
(0.998908 0.00503489 0)
(0.999537 0.00315109 0)
(0.999315 0.0019839 0)
(0.999452 0.00264105 0)
(0.999034 0.00152797 0)
(0.99727 0.00215341 0)
(0.996379 0.00386698 0)
(0.996917 0.00488519 0)
(0.997142 0.00656864 0)
(1.00064 0.000796013 0)
(0.999331 -0.00206788 0)
(0.999951 0.00317503 0)
(0.999253 -0.00394004 0)
(0.997342 0.00435322 0)
(1.00101 -0.000580692 0)
(0.9984 0.000802084 0)
(0.999719 0.00180916 0)
(1.00009 -0.00291154 0)
(0.99479 0.00160211 0)
(0.99612 0.00180904 0)
(0.998964 0.00465286 0)
(0.999394 0.0033153 0)
(0.999294 0.0019008 0)
(0.999441 0.00269711 0)
(0.999014 0.00182647 0)
(0.997438 0.00220314 0)
(0.996595 0.00397612 0)
(0.997134 0.00509782 0)
(0.997486 0.00644436 0)
(1.00061 0.000791012 0)
(0.999387 -0.00202304 0)
(0.999909 0.00307892 0)
(0.9993 -0.00371866 0)
(0.997426 0.00412373 0)
(1.00093 -0.00041697 0)
(0.998489 0.000641231 0)
(0.999606 0.00194483 0)
(1.00011 -0.00283701 0)
(0.994981 0.00166573 0)
(0.996258 0.00186422 0)
(0.999033 0.00425693 0)
(0.999259 0.00347189 0)
(0.999265 0.00186437 0)
(0.999452 0.00270031 0)
(0.998994 0.00214172 0)
(0.997597 0.00228798 0)
(0.996834 0.00401085 0)
(0.997347 0.00528895 0)
(0.997798 0.00638358 0)
(1.00058 0.000785066 0)
(0.999444 -0.0019743 0)
(0.999869 0.00297356 0)
(0.999347 -0.00348336 0)
(0.997512 0.00388104 0)
(1.00084 -0.000240357 0)
(0.998581 0.000475357 0)
(0.999498 0.00207495 0)
(1.00012 -0.00274412 0)
(0.995181 0.00168938 0)
(0.996382 0.00195977 0)
(0.999114 0.00385759 0)
(0.999139 0.00360572 0)
(0.999223 0.00188678 0)
(0.999484 0.00265269 0)
(0.998981 0.00245187 0)
(0.99774 0.00242118 0)
(0.997091 0.00398887 0)
(0.997567 0.00542544 0)
(0.998072 0.00639073 0)
(1.00056 0.000777339 0)
(0.999501 -0.00192005 0)
(0.999832 0.00285744 0)
(0.999391 -0.00323468 0)
(0.997603 0.00362756 0)
(1.00075 -5.43589e-05 0)
(0.998677 0.000309858 0)
(0.999394 0.00219343 0)
(1.00013 -0.00262205 0)
(0.995389 0.00167204 0)
(0.996491 0.00208817 0)
(0.999203 0.00347077 0)
(0.999039 0.00370197 0)
(0.999168 0.00197189 0)
(0.999536 0.00256669 0)
(0.998983 0.00273554 0)
(0.997863 0.00260756 0)
(0.997357 0.0039372 0)
(0.997804 0.00548401 0)
(0.998314 0.00644694 0)
(1.00053 0.000768055 0)
(0.999558 -0.00185967 0)
(0.999799 0.00272935 0)
(0.999432 -0.00297365 0)
(0.997698 0.00336534 0)
(1.00066 0.000135326 0)
(0.998774 0.00015191 0)
(0.999297 0.00229024 0)
(1.00014 -0.0024652 0)
(0.995609 0.00161627 0)
(0.996588 0.00223683 0)
(0.999297 0.00310916 0)
(0.998964 0.00375218 0)
(0.999099 0.00211944 0)
(0.999602 0.00246476 0)
(0.999008 0.0029733 0)
(0.997965 0.00284485 0)
(0.997618 0.00388906 0)
(0.998064 0.00546056 0)
(0.998534 0.00651267 0)
(1.0005 0.000757086 0)
(0.999616 -0.00179312 0)
(0.99977 0.00259061 0)
(0.999471 -0.00270413 0)
(0.997796 0.00309948 0)
(1.00057 0.000324865 0)
(0.998873 1.18487e-05 0)
(0.999208 0.00235841 0)
(1.00014 -0.00227217 0)
(0.995838 0.00152945 0)
(0.996673 0.00239605 0)
(0.999391 0.00278511 0)
(0.998919 0.00374835 0)
(0.999017 0.00231697 0)
(0.999674 0.00236909 0)
(0.999061 0.00314744 0)
(0.998049 0.00311981 0)
(0.997864 0.00387049 0)
(0.998348 0.00536267 0)
(0.99875 0.00654348 0)
(1.00047 0.000742999 0)
(0.999673 -0.00171706 0)
(0.999747 0.00243935 0)
(0.999508 -0.00242763 0)
(0.997898 0.00283324 0)
(1.00048 0.000511158 0)
(0.99897 -0.000108795 0)
(0.999128 0.00239571 0)
(1.00013 -0.00205036 0)
(0.996078 0.00141744 0)
(0.996748 0.00255304 0)
(0.999481 0.00250866 0)
(0.998906 0.00368944 0)
(0.998927 0.00254772 0)
(0.999745 0.00229939 0)
(0.999147 0.00324574 0)
(0.998123 0.00340563 0)
(0.99808 0.00389992 0)
(0.998646 0.0052124 0)
(0.998979 0.00650113 0)
(1.00044 0.000727283 0)
(0.999728 -0.00163389 0)
(0.999729 0.00227827 0)
(0.999541 -0.00214755 0)
(0.998002 0.00257258 0)
(1.00039 0.000683897 0)
(0.999066 -0.00020894 0)
(0.999058 0.00239965 0)
(1.00012 -0.00180261 0)
(0.996326 0.00129431 0)
(0.996817 0.00269924 0)
(0.999562 0.00228524 0)
(0.998928 0.00358279 0)
(0.998834 0.00279857 0)
(0.999805 0.00227348 0)
(0.999267 0.00326809 0)
(0.998198 0.00367062 0)
(0.99826 0.00398277 0)
(0.998943 0.00505074 0)
(0.999237 0.00637149 0)
(1.00041 0.000708878 0)
(0.999782 -0.00154166 0)
(0.999717 0.00210899 0)
(0.999572 -0.00186994 0)
(0.998108 0.00232533 0)
(1.0003 0.000837708 0)
(0.999159 -0.000274986 0)
(0.999 0.00237045 0)
(1.00009 -0.00153694 0)
(0.996581 0.00116859 0)
(0.996883 0.00283512 0)
(0.999629 0.00212054 0)
(0.998984 0.0034322 0)
(0.998746 0.00304942 0)
(0.999847 0.00230233 0)
(0.999414 0.00322921 0)
(0.998288 0.00389085 0)
(0.998404 0.00410747 0)
(0.999223 0.00491368 0)
(0.999526 0.00616851 0)
(1.00038 0.000687741 0)
(0.999832 -0.00143961 0)
(0.999711 0.00193338 0)
(0.999601 -0.00160039 0)
(0.998214 0.00209634 0)
(1.00022 0.000970864 0)
(0.999248 -0.000311465 0)
(0.998953 0.00231614 0)
(1.00006 -0.00126091 0)
(0.996843 0.00103846 0)
(0.996949 0.0029493 0)
(0.999679 0.00201748 0)
(0.999071 0.00324596 0)
(0.99867 0.00328196 0)
(0.999863 0.00238731 0)
(0.999583 0.00315158 0)
(0.998401 0.00405349 0)
(0.998519 0.00425599 0)
(0.999471 0.00481601 0)
(0.999835 0.0059217 0)
(1.00036 0.000664253 0)
(0.999879 -0.00132949 0)
(0.999711 0.00175505 0)
(0.999629 -0.00134499 0)
(0.998321 0.00189175 0)
(1.00013 0.00107996 0)
(0.999332 -0.000322401 0)
(0.998919 0.00224785 0)
(1.00002 -0.000978056 0)
(0.997107 0.000911059 0)
(0.99702 0.00303429 0)
(0.999709 0.00197394 0)
(0.999187 0.00303291 0)
(0.998615 0.00347928 0)
(0.999851 0.00252958 0)
(0.999762 0.00305775 0)
(0.998544 0.00415022 0)
(0.998612 0.00441254 0)
(0.999677 0.00476023 0)
(1.00015 0.00566823 0)
(1.00033 0.000638006 0)
(0.999922 -0.00121218 0)
(0.999716 0.00157711 0)
(0.999656 -0.00110981 0)
(0.998427 0.00171366 0)
(1.00005 0.00116808 0)
(0.999409 -0.000308435 0)
(0.998897 0.00217173 0)
(0.999971 -0.000694072 0)
(0.997372 0.000792085 0)
(0.997101 0.00309259 0)
(0.999717 0.00198973 0)
(0.999325 0.00280942 0)
(0.99859 0.00362098 0)
(0.999811 0.00272902 0)
(0.999938 0.00297627 0)
(0.998721 0.00417487 0)
(0.998696 0.00456031 0)
(0.999837 0.00474588 0)
(1.00044 0.00544384 0)
(1.0003 0.000610576 0)
(0.999959 -0.00109176 0)
(0.999724 0.00140438 0)
(0.999684 -0.000898502 0)
(0.998532 0.00156082 0)
(0.999976 0.00123818 0)
(0.999481 -0.000277072 0)
(0.998888 0.00208727 0)
(0.999914 -0.000409834 0)
(0.997634 0.000683386 0)
(0.997196 0.00311694 0)
(0.999702 0.00206303 0)
(0.999477 0.00260071 0)
(0.998603 0.00369058 0)
(0.999748 0.00295699 0)
(1.0001 0.00293058 0)
(0.99893 0.00413357 0)
(0.998783 0.00467585 0)
(0.999955 0.00475913 0)
(1.00069 0.00526958 0)
(1.00028 0.000581047 0)
(0.999992 -0.000968957 0)
(0.999735 0.00124051 0)
(0.999712 -0.000713241 0)
(0.998636 0.00143062 0)
(0.999902 0.00129687 0)
(0.999547 -0.000236731 0)
(0.998893 0.00199234 0)
(0.999849 -0.000127817 0)
(0.997889 0.00059586 0)
(0.99731 0.00309346 0)
(0.999667 0.00218237 0)
(0.99963 0.00242876 0)
(0.998657 0.00369446 0)
(0.999673 0.00318263 0)
(1.00023 0.00292472 0)
(0.999162 0.00404541 0)
(0.998883 0.00474722 0)
(1.00004 0.00477432 0)
(1.00089 0.00513794 0)
(1.00025 0.000551581 0)
(1.00002 -0.000849013 0)
(0.999748 0.00109258 0)
(0.99974 -0.000554091 0)
(0.998739 0.00131694 0)
(0.999831 0.00134707 0)
(0.999605 -0.000184566 0)
(0.998911 0.00188981 0)
(0.999779 0.000149578 0)
(0.998131 0.000539708 0)
(0.997445 0.00302092 0)
(0.99962 0.00232807 0)
(0.999777 0.00230305 0)
(0.99875 0.00364026 0)
(0.999595 0.00339108 0)
(1.00033 0.00295747 0)
(0.99941 0.00392491 0)
(0.999001 0.00478067 0)
(1.0001 0.00479083 0)
(1.00106 0.0050157 0)
(1.00023 0.000521328 0)
(1.00004 -0.000730573 0)
(0.999762 0.000961713 0)
(0.999767 -0.000420638 0)
(0.998841 0.00121447 0)
(0.999764 0.00139492 0)
(0.999655 -0.000119262 0)
(0.998944 0.00177614 0)
(0.999706 0.000424461 0)
(0.998355 0.000516403 0)
(0.997601 0.00290999 0)
(0.999566 0.00247885 0)
(0.999908 0.00223519 0)
(0.99888 0.00354096 0)
(0.999525 0.00356653 0)
(1.00039 0.00303056 0)
(0.999664 0.00378089 0)
(0.999145 0.00476143 0)
(1.00014 0.00482498 0)
(1.00119 0.00488345 0)
(1.00021 0.000491677 0)
(1.00006 -0.000618586 0)
(0.999776 0.000852963 0)
(0.999795 -0.000308294 0)
(0.998943 0.00111369 0)
(0.999701 0.00144215 0)
(0.999694 -4.14268e-05 0)
(0.998993 0.00164609 0)
(0.999634 0.000685801 0)
(0.998556 0.00053655 0)
(0.997778 0.00276476 0)
(0.999515 0.00260863 0)
(1.00002 0.00223021 0)
(0.999038 0.00342411 0)
(0.999474 0.00369706 0)
(1.0004 0.00314 0)
(0.999909 0.00363657 0)
(0.999324 0.00466425 0)
(1.00016 0.00486882 0)
(1.00128 0.00477562 0)
(1.00019 0.000463219 0)
(1.00008 -0.000514023 0)
(0.999791 0.00076488 0)
(0.999821 -0.000212521 0)
(0.999045 0.00100972 0)
(0.999645 0.0014808 0)
(0.999721 5.88152e-05 0)
(0.999055 0.00150841 0)
(0.999569 0.00091343 0)
(0.998731 0.000613425 0)
(0.997968 0.00260696 0)
(0.999476 0.00269919 0)
(1.0001 0.0022673 0)
(0.999213 0.00330778 0)
(0.999449 0.0037723 0)
(1.00038 0.00327055 0)
(1.00012 0.00352489 0)
(0.999538 0.00449668 0)
(1.00018 0.00487299 0)
(1.00132 0.00473421 0)
(1.00017 0.000435409 0)
(1.00009 -0.000415998 0)
(0.999805 0.000693154 0)
(0.999845 -0.000127033 0)
(0.999148 0.000901289 0)
(0.999597 0.00150609 0)
(0.999735 0.000185222 0)
(0.999126 0.00137791 0)
(0.999517 0.00110412 0)
(0.99888 0.000731364 0)
(0.998165 0.00245497 0)
(0.999453 0.00274829 0)
(1.00017 0.00232255 0)
(0.999396 0.00320435 0)
(0.999453 0.00380173 0)
(1.00034 0.00339941 0)
(1.0003 0.00346263 0)
(0.999771 0.00430013 0)
(1.00024 0.00479276 0)
(1.00131 0.00473784 0)
(1.00015 0.00040924 0)
(1.0001 -0.00032615 0)
(0.999819 0.000634687 0)
(0.999864 -4.45515e-05 0)
(0.999251 0.000796665 0)
(0.999562 0.00150926 0)
(0.999737 0.000336554 0)
(0.999204 0.00126417 0)
(0.999482 0.0012463 0)
(0.999004 0.000875944 0)
(0.998361 0.00232029 0)
(0.999448 0.00276549 0)
(1.00022 0.00238316 0)
(0.999581 0.00310973 0)
(0.999488 0.00379856 0)
(1.00028 0.00350871 0)
(1.00042 0.00343317 0)
(0.999998 0.00411384 0)
(1.00034 0.00463607 0)
(1.00128 0.00471693 0)
(1.00013 0.000384154 0)
(1.0001 -0.000244409 0)
(0.999833 0.000588186 0)
(0.999881 3.55898e-05 0)
(0.999351 0.000700332 0)
(0.999541 0.00148504 0)
(0.999729 0.000503154 0)
(0.999282 0.00118151 0)
(0.999465 0.00133416 0)
(0.999108 0.00102762 0)
(0.99855 0.00222218 0)
(0.999463 0.00275222 0)
(1.00026 0.00244106 0)
(0.999764 0.00302302 0)
(0.99955 0.00376151 0)
(1.00022 0.00360373 0)
(1.0005 0.00342182 0)
(1.0002 0.00395566 0)
(1.00047 0.00444849 0)
(1.00128 0.00461574 0)
(1.00011 0.000361015 0)
(1.00011 -0.000171095 0)
(0.999848 0.000548029 0)
(0.999893 0.000120279 0)
(0.999448 0.000613903 0)
(0.999537 0.00142976 0)
(0.999716 0.000668834 0)
(0.999354 0.00114115 0)
(0.999465 0.00139071 0)
(0.999201 0.00116739 0)
(0.99873 0.00215633 0)
(0.999492 0.00272515 0)
(1.0003 0.00249292 0)
(0.999939 0.00294614 0)
(0.99964 0.00369199 0)
(1.00016 0.00367995 0)
(1.00054 0.00343001 0)
(1.00038 0.00381736 0)
(1.0006 0.00427601 0)
(1.00132 0.00444036 0)
(1.0001 0.000338237 0)
(1.00011 -0.000102655 0)
(0.999864 0.000512627 0)
(0.999902 0.00020498 0)
(0.999537 0.000547562 0)
(0.999548 0.00134702 0)
(0.999703 0.000821908 0)
(0.99942 0.00114245 0)
(0.99948 0.00142959 0)
(0.999285 0.00128954 0)
(0.9989 0.00210223 0)
(0.999536 0.00269516 0)
(1.00032 0.00254588 0)
(1.0001 0.00287419 0)
(0.999756 0.00359179 0)
(1.00011 0.00372155 0)
(1.00054 0.00346467 0)
(1.00053 0.00368699 0)
(1.00072 0.00412875 0)
(1.00137 0.00425589 0)
(1.00009 0.00031626 0)
(1.00011 -3.95569e-05 0)
(0.999883 0.0004827 0)
(0.99991 0.000285329 0)
(0.999618 0.000504351 0)
(0.999577 0.00124998 0)
(0.999696 0.000945966 0)
(0.999476 0.00118295 0)
(0.999503 0.00146215 0)
(0.999363 0.00138639 0)
(0.999062 0.00206644 0)
(0.999596 0.00264865 0)
(1.00034 0.00259595 0)
(1.00025 0.00282797 0)
(0.999894 0.00346025 0)
(1.00009 0.00371337 0)
(1.00051 0.00351339 0)
(1.00064 0.00358087 0)
(1.00084 0.00397612 0)
(1.00141 0.00411614 0)
(1.00008 0.000294849 0)
(1.00011 1.91733e-05 0)
(0.999902 0.000452411 0)
(0.999917 0.000362014 0)
(0.999689 0.000488284 0)
(0.999617 0.00114765 0)
(0.999701 0.00102801 0)
(0.999528 0.00124455 0)
(0.99953 0.00150848 0)
(0.999438 0.0014635 0)
(0.999214 0.00203241 0)
(0.999669 0.00260162 0)
(1.00037 0.00262393 0)
(1.00037 0.00281317 0)
(1.00004 0.00333025 0)
(1.0001 0.0036471 0)
(1.00047 0.00354376 0)
(1.00071 0.00351833 0)
(1.00095 0.00380849 0)
(1.00144 0.00400558 0)
(1.00007 0.000273361 0)
(1.00011 7.36391e-05 0)
(0.999924 0.000423841 0)
(0.999924 0.000426435 0)
(0.99975 0.000500993 0)
(0.999666 0.00105077 0)
(0.999721 0.00106882 0)
(0.99958 0.00130479 0)
(0.999558 0.00157283 0)
(0.999502 0.00154476 0)
(0.99936 0.00198518 0)
(0.999755 0.00254897 0)
(1.0004 0.00264259 0)
(1.00047 0.00279505 0)
(1.00017 0.00323036 0)
(1.00014 0.00353991 0)
(1.00043 0.00352818 0)
(1.00075 0.00348779 0)
(1.00105 0.00365447 0)
(1.00148 0.00387691 0)
(1.00006 0.00025223 0)
(1.00011 0.000124436 0)
(0.999945 0.000397716 0)
(0.999935 0.000477699 0)
(0.9998 0.000535991 0)
(0.999716 0.000968497 0)
(0.999755 0.00107431 0)
(0.99964 0.00135439 0)
(0.999591 0.00164535 0)
(0.999554 0.00162983 0)
(0.999493 0.00195183 0)
(0.999859 0.00246234 0)
(1.00044 0.00265388 0)
(1.00056 0.00279128 0)
(1.0003 0.00314369 0)
(1.00019 0.00343375 0)
(1.00042 0.00345714 0)
(1.00075 0.00345093 0)
(1.00113 0.00354107 0)
(1.00154 0.00371027 0)
(1.00005 0.000230977 0)
(1.0001 0.00017266 0)
(0.999968 0.000376436 0)
(0.99995 0.000513771 0)
(0.999841 0.000582292 0)
(0.999765 0.000909755 0)
(0.999803 0.00105765 0)
(0.999711 0.00138072 0)
(0.999629 0.00171575 0)
(0.999595 0.00172235 0)
(0.999605 0.00193701 0)
(0.999971 0.00236484 0)
(1.00051 0.00261726 0)
(1.00064 0.00280427 0)
(1.00041 0.00307185 0)
(1.00025 0.00333522 0)
(1.00042 0.00336779 0)
(1.00076 0.00337109 0)
(1.00117 0.00346961 0)
(1.00161 0.00354456 0)
(1.00004 0.00021002 0)
(1.0001 0.000217426 0)
(0.999989 0.000361327 0)
(0.999971 0.000532493 0)
(0.999876 0.000635508 0)
(0.999808 0.000880377 0)
(0.999857 0.00102791 0)
(0.999796 0.00137416 0)
(0.999681 0.00176947 0)
(0.999626 0.00183054 0)
(0.999694 0.00193789 0)
(1.00008 0.00227411 0)
(1.0006 0.00254571 0)
(1.00073 0.0027826 0)
(1.00051 0.0030406 0)
(1.00031 0.00324026 0)
(1.00042 0.00328598 0)
(1.00078 0.00325479 0)
(1.0012 0.00338359 0)
(1.00166 0.00342613 0)
(1.00004 0.000190351 0)
(1.00009 0.000256782 0)
(1.00001 0.000355275 0)
(0.999996 0.000533662 0)
(0.999907 0.00068585 0)
(0.999842 0.000881208 0)
(0.999912 0.000998912 0)
(0.999893 0.00133942 0)
(0.999753 0.00179469 0)
(0.999653 0.00193332 0)
(0.999756 0.00197199 0)
(1.00018 0.00218537 0)
(1.0007 0.00245412 0)
(1.00084 0.00272291 0)
(1.00061 0.00300677 0)
(1.00035 0.0031831 0)
(1.00041 0.00321008 0)
(1.0008 0.00314101 0)
(1.00125 0.00324934 0)
(1.00168 0.00334547 0)
(1.00003 0.000172156 0)
(1.00008 0.000290477 0)
(1.00002 0.000358075 0)
(1.00003 0.000521052 0)
(0.99994 0.000725788 0)
(0.999869 0.00090542 0)
(0.999961 0.000982624 0)
(0.999998 0.0012872 0)
(0.999847 0.00178579 0)
(0.999688 0.00201801 0)
(0.999789 0.00203829 0)
(1.00026 0.0021233 0)
(1.00081 0.00233464 0)
(1.00097 0.00264042 0)
(1.00072 0.00294032 0)
(1.0004 0.00314259 0)
(1.00038 0.0031676 0)
(1.0008 0.00304918 0)
(1.00131 0.00308144 0)
(1.00171 0.00325143 0)
(1.00003 0.000156631 0)
(1.00007 0.000315303 0)
(1.00003 0.000372265 0)
(1.00006 0.000501974 0)
(0.999977 0.000749324 0)
(0.999889 0.000940937 0)
(0.999998 0.000983757 0)
(1.0001 0.00122797 0)
(0.999963 0.0017391 0)
(0.999738 0.0020755 0)
(0.999803 0.00211604 0)
(1.00031 0.00210224 0)
(1.00092 0.00221576 0)
(1.00112 0.00251635 0)
(1.00085 0.00286151 0)
(1.00047 0.00307877 0)
(1.00035 0.00314955 0)
(1.00074 0.00301046 0)
(1.00137 0.00290755 0)
(1.00176 0.0031033 0)
(1.00002 0.000144944 0)
(1.00006 0.000331108 0)
(1.00003 0.000394101 0)
(1.00009 0.000481072 0)
(1.00002 0.000752409 0)
(0.999906 0.000982043 0)
(1.00002 0.00100888 0)
(1.0002 0.00117342 0)
(1.0001 0.00165784 0)
(0.999813 0.00209215 0)
(0.999807 0.00219443 0)
(1.00031 0.00211557 0)
(1.001 0.00212542 0)
(1.00128 0.00235859 0)
(1.001 0.00274832 0)
(1.00056 0.00300945 0)
(1.00033 0.0031062 0)
(1.00063 0.00302742 0)
(1.00138 0.00279303 0)
(1.00186 0.00289764 0)
(1.00002 0.000136626 0)
(1.00005 0.000337418 0)
(1.00002 0.000421932 0)
(1.00011 0.00046602 0)
(1.00007 0.000733378 0)
(0.999927 0.00101605 0)
(1.00003 0.0010544 0)
(1.00028 0.0011358 0)
(1.00024 0.0015581 0)
(0.999918 0.0020597 0)
(0.999815 0.00225915 0)
(1.00029 0.0021579 0)
(1.00104 0.00206599 0)
(1.00143 0.00221216 0)
(1.00119 0.00258178 0)
(1.00067 0.00292978 0)
(1.00035 0.00304135 0)
(1.00052 0.00303674 0)
(1.00128 0.00278014 0)
(1.00196 0.00268929 0)
(1.00002 0.000132766 0)
(1.00005 0.000334681 0)
(1.00001 0.00045113 0)
(1.00013 0.000460518 0)
(1.00012 0.000697373 0)
(0.999956 0.00103303 0)
(1.00003 0.00111053 0)
(1.00033 0.00112163 0)
(1.00039 0.00145463 0)
(1.00006 0.00197948 0)
(0.999842 0.00228851 0)
(1.00024 0.0022234 0)
(1.00104 0.00203777 0)
(1.00155 0.00209054 0)
(1.0014 0.00239076 0)
(1.00083 0.00280239 0)
(1.0004 0.00297748 0)
(1.00044 0.00300208 0)
(1.00111 0.00282874 0)
(1.00197 0.0025655 0)
(1.00001 0.000132396 0)
(1.00005 0.000324767 0)
(1 0.000477046 0)
(1.00014 0.000468268 0)
(1.00018 0.000654645 0)
(0.999997 0.00102676 0)
(1.00002 0.00116712 0)
(1.00036 0.00113482 0)
(1.00052 0.00135839 0)
(1.00022 0.0018637 0)
(0.999903 0.00226591 0)
(1.00017 0.00228934 0)
(1.00099 0.0020529 0)
(1.00162 0.00199325 0)
(1.00161 0.00220933 0)
(1.00104 0.00262268 0)
(1.00049 0.00289831 0)
(1.00041 0.0029408 0)
(1.00092 0.00286296 0)
(1.00185 0.00255701 0)
(1 0.000134562 0)
(1.00005 0.000311055 0)
(0.999999 0.000496153 0)
(1.00013 0.000488886 0)
(1.00023 0.000613075 0)
(1.00005 0.000993722 0)
(1.00001 0.00121213 0)
(1.00036 0.00117331 0)
(1.00063 0.00128199 0)
(1.00039 0.00173001 0)
(1.00001 0.00219231 0)
(1.00012 0.00232774 0)
(1.00089 0.0021027 0)
(1.00164 0.00193567 0)
(1.00179 0.00204698 0)
(1.00128 0.00241355 0)
(1.00063 0.00277856 0)
(1.00041 0.00287283 0)
(1.00077 0.00284421 0)
(1.00164 0.0026109 0)
(1 0.000138666 0)
(1.00005 0.000296164 0)