/*--------------------------------*- C++ -*----------------------------------*\
| =========                 |                                                 |
| \\      /  F ield         | OpenFOAM: The Open Source CFD Toolbox           |
|  \\    /   O peration     | Version:  3.0.1                                 |
|   \\  /    A nd           | Web:      www.OpenFOAM.org                      |
|    \\/     M anipulation  |                                                 |
\*---------------------------------------------------------------------------*/
FoamFile
{
    version     2.0;
    format      ascii;
    class       volScalarField;
    location    "3.1";
    object      p;
}
// * * * * * * * * * * * * * * * * * * * * * * * * * * * * * * * * * * * * * //

dimensions      [0 2 -2 0 0 0 0];

internalField   nonuniform List<scalar> 
9600
(
6.20702e-11
-0.00104444
-0.000176576
-0.00164647
-0.00253012
0.00097774
-0.000742471
-0.00387342
-0.00208227
-0.00140493
-0.00225455
-0.0019977
-0.00114191
-0.00170405
-0.00195474
-0.00205632
-0.00257262
-0.00226515
-0.00270468
-0.00224974
3.14266e-06
-0.00104863
-0.000188421
-0.00164883
-0.0025116
0.000932586
-0.000749096
-0.00386355
-0.0020918
-0.0013989
-0.00224575
-0.00200953
-0.00113233
-0.00171837
-0.00194049
-0.00210557
-0.00256082
-0.00232329
-0.00268891
-0.00241036
6.41194e-06
-0.00105327
-0.00020142
-0.00164922
-0.00249382
0.000883953
-0.000748888
-0.00384485
-0.00210627
-0.0013926
-0.00224002
-0.00202888
-0.0011236
-0.00174247
-0.00192209
-0.0021697
-0.00254671
-0.00239583
-0.00267185
-0.00263121
8.82478e-06
-0.00105729
-0.000215467
-0.00164886
-0.00247833
0.000834208
-0.000746917
-0.00381997
-0.00212758
-0.00138903
-0.00223572
-0.00205449
-0.00111797
-0.00177547
-0.00190584
-0.00223828
-0.00254007
-0.00245492
-0.00267679
-0.0028384
1.07289e-05
-0.00106139
-0.000231371
-0.00164705
-0.00246057
0.00078102
-0.000746744
-0.00378927
-0.00215556
-0.00138614
-0.002231
-0.00208607
-0.00111362
-0.00181519
-0.00188637
-0.00230902
-0.00253185
-0.00250479
-0.00270782
-0.00300766
1.24001e-05
-0.00106584
-0.000248208
-0.00164286
-0.00243982
0.000724243
-0.000747607
-0.00375307
-0.00218684
-0.00138277
-0.0022264
-0.00212182
-0.0011099
-0.00185627
-0.00186381
-0.00237897
-0.00251947
-0.00255544
-0.00275573
-0.00314533
1.39456e-05
-0.00107078
-0.000264943
-0.00163634
-0.00241673
0.000664431
-0.00074822
-0.00371174
-0.00221805
-0.00137904
-0.00222221
-0.00216009
-0.00110638
-0.00189626
-0.00184257
-0.00244493
-0.00251005
-0.00260537
-0.00281648
-0.00326645
1.54385e-05
-0.00107622
-0.000281047
-0.0016282
-0.00239187
0.000601968
-0.000747847
-0.00366576
-0.00224725
-0.00137509
-0.00221839
-0.00220005
-0.00110258
-0.00193543
-0.00182503
-0.00250634
-0.00250871
-0.00264928
-0.0028941
-0.00337849
1.69522e-05
-0.00108215
-0.000296483
-0.00161939
-0.00236579
0.000537036
-0.000746238
-0.00361598
-0.00227387
-0.00137103
-0.002215
-0.00224116
-0.00109833
-0.00197443
-0.0018119
-0.00256357
-0.0025172
-0.0026851
-0.00299146
-0.00348373
1.8544e-05
-0.00108851
-0.000311507
-0.00161081
-0.0023389
0.000469849
-0.00074356
-0.0035634
-0.00229817
-0.00136698
-0.00221218
-0.00228311
-0.00109389
-0.00201324
-0.00180401
-0.00261613
-0.00253713
-0.00271217
-0.00310715
-0.00358558
2.0253e-05
-0.00109527
-0.000326461
-0.00160308
-0.00231134
0.000400726
-0.000740287
-0.003509
-0.00232067
-0.00136298
-0.00221006
-0.00232584
-0.00108977
-0.00205137
-0.00180236
-0.00266276
-0.00257048
-0.00273052
-0.00323761
-0.00368987
2.21032e-05
-0.00110241
-0.000341628
-0.00159649
-0.00228311
0.000330005
-0.000736945
-0.00345348
-0.00234186
-0.00135897
-0.0022088
-0.00236936
-0.00108657
-0.00208788
-0.00180818
-0.00270197
-0.00261889
-0.00274186
-0.00337813
-0.00380248
2.4105e-05
-0.00110995
-0.000357177
-0.00159103
-0.00225421
0.000257992
-0.000733959
-0.00339731
-0.00236223
-0.00135486
-0.00220851
-0.00241358
-0.00108497
-0.0021216
-0.00182298
-0.00273272
-0.00268295
-0.00274955
-0.00352267
-0.00392757
2.62596e-05
-0.00111793
-0.000373191
-0.00158652
-0.00222463
0.000184998
-0.000731692
-0.00334075
-0.00238215
-0.00135043
-0.00220933
-0.00245841
-0.00108569
-0.00215122
-0.00184833
-0.00275501
-0.00276157
-0.00275795
-0.00366468
-0.00406706
2.85631e-05
-0.00112637
-0.000389712
-0.00158274
-0.00219444
0.00011134
-0.000730504
-0.00328387
-0.00240194
-0.00134543
-0.0022114
-0.00250383
-0.00108932
-0.00217559
-0.00188553
-0.00276974
-0.00285207
-0.00277207
-0.00379839
-0.00422088
3.10028e-05
-0.00113526
-0.000406769
-0.00157947
-0.00216373
3.73401e-05
-0.000730754
-0.00322664
-0.00242186
-0.00133968
-0.00221481
-0.00254974
-0.0010964
-0.00219395
-0.00193514
-0.00277848
-0.00295113
-0.0027969
-0.00391932
-0.00438697
3.35525e-05
-0.00114459
-0.000424385
-0.00157651
-0.00213268
-3.66804e-05
-0.000732769
-0.00316896
-0.00244218
-0.00133306
-0.00221953
-0.00259606
-0.00110742
-0.00220596
-0.00199686
-0.00278359
-0.00305533
-0.00283641
-0.00402481
-0.00456194
3.61727e-05
-0.00115432
-0.000442599
-0.0015737
-0.00210149
-0.000110375
-0.000736852
-0.00311072
-0.00246323
-0.00132544
-0.00222548
-0.00264293
-0.00112279
-0.00221159
-0.00206936
-0.00278789
-0.00316181
-0.00289277
-0.00411362
-0.00474175
3.88087e-05
-0.00116438
-0.000461467
-0.00157092
-0.00207042
-0.000183355
-0.000743341
-0.00305182
-0.00248518
-0.0013169
-0.00223236
-0.00269058
-0.00114274
-0.00220805
-0.00215077
-0.00279382
-0.0032683
-0.00296638
-0.00418568
-0.00492179
4.13923e-05
-0.00117466
-0.000481073
-0.00156801
-0.00203979
-0.000255236
-0.000752579
-0.00299217
-0.0025082
-0.0013077
-0.00223965
-0.00273946
-0.00116725
-0.00220307
-0.00223957
-0.00280354
-0.00337254
-0.00305666
-0.00424236
-0.00509736
4.38383e-05
-0.00118503
-0.000501529
-0.00156485
-0.00200993
-0.00032563
-0.000764879
-0.00293166
-0.00253241
-0.00129814
-0.00224667
-0.00279051
-0.00119586
-0.00219523
-0.00233482
-0.00281862
-0.00347283
-0.00316339
-0.00428588
-0.00526311
4.60304e-05
-0.00119531
-0.000522959
-0.00156129
-0.00198118
-0.000394122
-0.000780558
-0.00287031
-0.00255771
-0.00128879
-0.00225242
-0.00284471
-0.00122803
-0.00218433
-0.00243614
-0.00283949
-0.00356797
-0.00328715
-0.0043187
-0.0054123
4.78281e-05
-0.00120527
-0.000545534
-0.00155712
-0.00195394
-0.000460339
-0.000799888
-0.00280823
-0.00258387
-0.00128059
-0.0022556
-0.00290273
-0.00126381
-0.00217023
-0.0025433
-0.00286682
-0.00365629
-0.00342796
-0.00434396
-0.00553787
4.90891e-05
-0.00121468
-0.000569486
-0.00155214
-0.00192853
-0.000523995
-0.000823014
-0.00274554
-0.00261066
-0.00127468
-0.00225461
-0.00296501
-0.00130413
-0.00215263
-0.00265603
-0.00290216
-0.00373504
-0.0035845
-0.00436679
-0.00563335
4.96305e-05
-0.00122323
-0.000595038
-0.0015462
-0.00190529
-0.000584811
-0.000849982
-0.00268259
-0.00263742
-0.00127245
-0.00224812
-0.00303163
-0.00135026
-0.00213061
-0.00277394
-0.00294786
-0.00380063
-0.00375387
-0.0043947
-0.00569351
4.92172e-05
-0.00123058
-0.000622405
-0.00153915
-0.00188454
-0.000642613
-0.000880658
-0.00261995
-0.00266323
-0.0012755
-0.00223552
-0.00310188
-0.00140369
-0.00210308
-0.002896
-0.00300728
-0.00384961
-0.0039309
-0.00443663
-0.00571572
4.76e-05
-0.0012363
-0.00065182
-0.00153086
-0.00186653
-0.000697397
-0.000914726
-0.00255837
-0.00268702
-0.00128514
-0.00221656
-0.00317427
-0.00146652
-0.00206965
-0.00302019
-0.00308406
-0.00388025
-0.00410808
-0.00450181
-0.00570201
4.44951e-05
-0.00123998
-0.000683484
-0.00152126
-0.0018515
-0.000749201
-0.000951626
-0.00249901
-0.00270757
-0.00130216
-0.00219157
-0.00324708
-0.00154103
-0.00203081
-0.00314353
-0.0031817
-0.00389385
-0.00427507
-0.00459745
-0.00566248
3.95878e-05
-0.00124116
-0.000717562
-0.00151035
-0.00183953
-0.000798271
-0.000990394
-0.0024432
-0.00272408
-0.00132715
-0.00216124
-0.003318
-0.00162947
-0.00198797
-0.00326184
-0.00330293
-0.00389527
-0.00441963
-0.00472481
-0.00561473
3.25373e-05
-0.0012394
-0.000754138
-0.00149825
-0.00183048
-0.000845232
-0.00102972
-0.00239214
-0.00273657
-0.00136014
-0.00212665
-0.00338458
-0.00173339
-0.00194396
-0.00337015
-0.00344822
-0.00389218
-0.00453086
-0.00487681
-0.00558087
2.29872e-05
-0.00123426
-0.000793234
-0.0014852
-0.00182399
-0.000891013
-0.00106811
-0.00234663
-0.00274532
-0.00140061
-0.00208978
-0.00344496
-0.0018531
-0.00190221
-0.00346358
-0.00361569
-0.00389379
-0.00460198
-0.00503891
-0.00558229
1.05875e-05
-0.00122531
-0.000834816
-0.00147164
-0.00181938
-0.000936799
-0.00110436
-0.00230687
-0.00275103
-0.00144812
-0.00205278
-0.00349753
-0.00198847
-0.00186636
-0.00353752
-0.00380139
-0.00390965
-0.00463263
-0.00519335
-0.00563047
-4.97656e-06
-0.00121221
-0.000878621
-0.00145817
-0.00181566
-0.000983912
-0.00113772
-0.00227231
-0.00275499
-0.00150229
-0.00201725
-0.0035407
-0.00213887
-0.00184069
-0.00358849
-0.0039998
-0.00394796
-0.00462873
-0.00532252
-0.00572085
-2.40341e-05
-0.00119473
-0.000924062
-0.00144578
-0.00181151
-0.00103333
-0.00116784
-0.00224174
-0.00275876
-0.00156286
-0.00198478
-0.00357356
-0.0023028
-0.00182962
-0.00361423
-0.0042038
-0.00401472
-0.00460014
-0.00541384
-0.00583665
-4.69031e-05
-0.00117282
-0.000970218
-0.00143569
-0.00180569
-0.00108545
-0.00119525
-0.00221398
-0.00276342
-0.00162977
-0.00195681
-0.00359543
-0.002478
-0.00183779
-0.00361348
-0.00440493
-0.00411367
-0.00455785
-0.00546199
-0.00595802
-7.38113e-05
-0.0011468
-0.00101571
-0.00142895
-0.00179758
-0.0011401
-0.00122139
-0.00218815
-0.00276933
-0.00170315
-0.00193476
-0.00360582
-0.0026619
-0.00186963
-0.00358637
-0.00459389
-0.00424611
-0.00451228
-0.00546652
-0.00606805
-0.000104899
-0.00111738
-0.00105877
-0.00142611
-0.00178715
-0.00119667
-0.00124741
-0.00216359
-0.00277675
-0.00178348
-0.00192061
-0.00360474
-0.00285107
-0.00192834
-0.00353501
-0.00476033
-0.00441135
-0.00447498
-0.00542921
-0.00615368
-0.000140117
-0.00108583
-0.00109769
-0.00142684
-0.00177546
-0.00125461
-0.00127417
-0.00213995
-0.00278613
-0.00187134
-0.00191571
-0.00359149
-0.00304119
-0.00201696
-0.00346502
-0.00489312
-0.00460538
-0.00445986
-0.00535436
-0.00620392
-0.000179358
-0.00105345
-0.00113106
-0.00143032
-0.00176312
-0.00131369
-0.00130353
-0.00211712
-0.00279773
-0.00196655
-0.00192056
-0.00356701
-0.00322784
-0.00213742
-0.00338538
-0.00498215
-0.00481858
-0.00448135
-0.00525127
-0.00620867
-0.000222449
-0.00102133
-0.00115781
-0.00143571
-0.00175049
-0.00137405
-0.00133819
-0.00209538
-0.00280932
-0.00206797
-0.00193658
-0.00352792
-0.00340533
-0.00228928
-0.0033075
-0.00502209
-0.00503651
-0.00455024
-0.00513607
-0.0061606
-0.00026899
-0.000990559
-0.00117754
-0.00144218
-0.00173747
-0.00143609
-0.00138086
-0.00207489
-0.00281787
-0.00217425
-0.00196557
-0.0034758
-0.00356663
-0.00246897
-0.00324383
-0.00501422
-0.00524303
-0.00466889
-0.00503
-0.0060598
-0.000317999
-0.00096217
-0.00119094
-0.00144971
-0.0017228
-0.00149882
-0.00143476
-0.00205737
-0.0028192
-0.00228292
-0.00200871
-0.00341407
-0.00370524
-0.00267015
-0.00320478
-0.00496496
-0.00542244
-0.00483008
-0.00495437
-0.00591736
-0.000368481
-0.000936792
-0.00119891
-0.00145821
-0.00170649
-0.0015586
-0.00150019
-0.00204958
-0.00281563
-0.00239675
-0.00206568
-0.00334717
-0.00381614
-0.00288477
-0.0031975
-0.00488408
-0.00556202
-0.00502013
-0.00492497
-0.00575311
-0.000420035
-0.000914524
-0.00120155
-0.00146778
-0.00169069
-0.00161364
-0.00157626
-0.00205649
-0.0028075
-0.00249677
-0.00213542
-0.00327979
-0.00389682
-0.00310302
-0.00322545
-0.0047837
-0.00565364
-0.00522286
-0.0049485
-0.00558996
-0.000471625
-0.000895524
-0.00119962
-0.00147909
-0.00167746
-0.00166583
-0.00166423
-0.0020725
-0.00279122
-0.00258915
-0.00221881
-0.00321991
-0.00394966
-0.00331563
-0.00328843
-0.00467737
-0.00569425
-0.00542128
-0.00502337
-0.0054497
-0.000522126
-0.000880591
-0.00119516
-0.0014936
-0.00167251
-0.00171224
-0.00174905
-0.00209533
-0.00277235
-0.00267327
-0.00231377
-0.00317368
-0.00397869
-0.00351574
-0.00338289
-0.00457846
-0.00568638
-0.00559873
-0.0051415
-0.00534944
-0.000571148
-0.000870455
-0.00118936
-0.0015118
-0.0016756
-0.00174955
-0.00182633
-0.00212843
-0.00275737
-0.00274728
-0.00241615
-0.00314247
-0.00398877
-0.00369832
-0.00350285
-0.00449782
-0.00563818
-0.00574065
-0.00528864
-0.00529817
-0.000618103
-0.000865451
-0.00118294
-0.00153189
-0.00168648
-0.00178062
-0.00189686
-0.00217074
-0.00274769
-0.00281161
-0.00252263
-0.00312814
-0.0039849
-0.0038583
-0.00363971
-0.00444167
-0.00556146
-0.00583699
-0.00544624
-0.00529748
-0.00066252
-0.000865915
-0.00117649
-0.00155157
-0.00170725
-0.00181082
-0.00195894
-0.0022167
-0.00274507
-0.00286945
-0.00262943
-0.00312896
-0.00397027
-0.00399216
-0.00378498
-0.00441399
-0.00547038
-0.00588594
-0.00559579
-0.00534159
-0.000704149
-0.000871636
-0.00117075
-0.00157054
-0.00173842
-0.00184278
-0.00201172
-0.00226312
-0.0027502
-0.00292236
-0.00273384
-0.00314186
-0.00394844
-0.00410058
-0.00393232
-0.00441575
-0.00537849
-0.00589259
-0.00572126
-0.00541645
-0.000742642
-0.000882482
-0.00116746
-0.00158821
-0.00177827
-0.00187928
-0.00205667
-0.00230727
-0.00276068
-0.00297121
-0.0028359
-0.00316714
-0.00392351
-0.00418453
-0.00407489
-0.00444277
-0.0052955
-0.00586651
-0.00581326
-0.00550474
-0.000778033
-0.000898285
-0.00116859
-0.0016029
-0.00182314
-0.00192259
-0.00209692
-0.00234755
-0.00277448
-0.00301639
-0.00293543
-0.00320495
-0.00389876
-0.00424382
-0.0042059
-0.00448935
-0.00522823
-0.0058194
-0.00587031
-0.00559118
-0.000810586
-0.000918595
-0.00117585
-0.00161403
-0.00186798
-0.00197312
-0.00213729
-0.00238411
-0.00279016
-0.00305858
-0.00303038
-0.00325293
-0.00387826
-0.00428134
-0.00432043
-0.00454942
-0.00517932
-0.00576131
-0.00589486
-0.00566391
-0.000841152
-0.000943247
-0.0011897
-0.00162204
-0.00190915
-0.00202999
-0.00218224
-0.00241839
-0.00280554
-0.00309688
-0.00311953
-0.00330875
-0.00386505
-0.00430246
-0.00441532
-0.00461605
-0.00514842
-0.00569993
-0.00589201
-0.00571596
-0.00087079
-0.000971226
-0.00120977
-0.00162879
-0.00194519
-0.00209112
-0.00223392
-0.00245307
-0.00281958
-0.00312922
-0.00320222
-0.00337126
-0.00386021
-0.00431173
-0.00448983
-0.00468217
-0.00513336
-0.00564136
-0.00586888
-0.00574486
-0.00090021
-0.00100154
-0.00123559
-0.00163723
-0.00197602
-0.00215253
-0.0022919
-0.00249148
-0.00283369
-0.00315451
-0.00327576
-0.00343806
-0.0038651
-0.00431312
-0.00454536
-0.00474226
-0.00512952
-0.00558925
-0.00583281
-0.00575148
-0.00092999
-0.00103339
-0.00126661
-0.00164991
-0.00200227
-0.00221068
-0.00235494
-0.00253562
-0.00284961
-0.003174
-0.00333723
-0.00350399
-0.00388046
-0.00431141
-0.00458406
-0.00479366
-0.00513198
-0.00554438
-0.00579017
-0.00573944
-0.000960698
-0.00106632
-0.0013019
-0.00166843
-0.00202557
-0.00226357
-0.00242062
-0.00258605
-0.0028691
-0.00318935
-0.00338688
-0.00356462
-0.00390287
-0.00431058
-0.00460897
-0.00483536
-0.00513777
-0.00550532
-0.00574492
-0.00571361
-0.000992891
-0.00110033
-0.00134008
-0.00169327
-0.00204873
-0.0023106
-0.0024853
-0.00264196
-0.00289445
-0.00320179
-0.00342561
-0.0036182
-0.00392778
-0.00431153
-0.00462385
-0.00486639
-0.00514471
-0.00547049
-0.0056983
-0.00567894
-0.00102702
-0.00113567
-0.00137996
-0.00172402
-0.00207467
-0.00235286
-0.00254571
-0.00270107
-0.00292711
-0.00321412
-0.00345361
-0.00366312
-0.00395308
-0.00431308
-0.00463162
-0.00488683
-0.00515026
-0.00543972
-0.00565086
-0.005639
-0.00106341
-0.00117275
-0.00142099
-0.0017599
-0.00210488
-0.00239196
-0.00260077
-0.00276024
-0.00296566
-0.00323001
-0.00347357
-0.00369662
-0.00397618
-0.00431445
-0.00463325
-0.00489814
-0.00515214
-0.00541249
-0.00560334
-0.00559459
-0.00110229
-0.00121202
-0.00146313
-0.00179976
-0.00213981
-0.00243001
-0.00265082
-0.00281678
-0.00300725
-0.00325014
-0.00349008
-0.00371974
-0.00399303
-0.00431467
-0.00462898
-0.00490091
-0.00514914
-0.00538668
-0.00555646
-0.00554545
-0.00114379
-0.00125394
-0.00150674
-0.00184241
-0.00217918
-0.00246905
-0.00269683
-0.00286924
-0.0030499
-0.00327254
-0.00350494
-0.00373607
-0.00400209
-0.00431102
-0.00461912
-0.00489438
-0.00514031
-0.00536054
-0.00551093
-0.00549302
-0.00118807
-0.00129881
-0.00155244
-0.0018872
-0.00222211
-0.00251038
-0.00274041
-0.00291713
-0.00309188
-0.00329653
-0.00351711
-0.00374659
-0.00400474
-0.00430107
-0.00460304
-0.00487836
-0.00512353
-0.00533209
-0.00546603
-0.00543931
-0.00123536
-0.00134688
-0.00160072
-0.00193398
-0.00226793
-0.00255445
-0.00278334
-0.00296089
-0.00313076
-0.00332129
-0.00352757
-0.00375021
-0.00400084
-0.00428423
-0.00457895
-0.00485336
-0.00509705
-0.00529811
-0.00541891
-0.00538325
-0.00128597
-0.00139835
-0.00165213
-0.00198307
-0.00231603
-0.00260091
-0.00282697
-0.0030024
-0.00316579
-0.00334401
-0.00353675
-0.00374767
-0.00398851
-0.0042597
-0.00454478
-0.00481772
-0.0050602
-0.00525635
-0.0053679
-0.00532444
-0.00134029
-0.00145334
-0.00170691
-0.00203527
-0.00236648
-0.00264931
-0.00287145
-0.00304291
-0.0031988
-0.00336355
-0.00354247
-0.00374012
-0.00396722
-0.0042255
-0.00449909
-0.00476806
-0.00501051
-0.00520403
-0.00531073
-0.00526242
-0.00139868
-0.00151203
-0.0017652
-0.00209089
-0.00241977
-0.00270013
-0.00291736
-0.00308256
-0.00323
-0.00338075
-0.00354352
-0.00372672
-0.00393739
-0.00417929
-0.00444025
-0.00470233
-0.00494456
-0.00513777
-0.00524324
-0.00519413
-0.00146149
-0.00157479
-0.00182725
-0.00215037
-0.00247622
-0.00275349
-0.00296571
-0.00312288
-0.00325957
-0.00339595
-0.00354054
-0.00370617
-0.00389861
-0.00411952
-0.00436363
-0.00461607
-0.00485656
-0.00505217
-0.00516032
-0.00511555
-0.00152922
-0.00164196
-0.00189323
-0.00221403
-0.00253676
-0.00281004
-0.00301662
-0.00316525
-0.00328936
-0.00340946
-0.00353452
-0.00367892
-0.00384954
-0.00404571
-0.00426552
-0.00450099
-0.00473452
-0.00493288
-0.00504933
-0.00501726
-0.00160231
-0.00171376
-0.00196381
-0.00228201
-0.00260144
-0.00287101
-0.00307192
-0.00321144
-0.00332156
-0.0034225
-0.00352512
-0.00364492
-0.00378812
-0.00395454
-0.00414444
-0.00435328
-0.00456829
-0.00476028
-0.00488348
-0.00487031
-0.00168171
-0.00179178
-0.00203879
-0.00235453
-0.00267055
-0.00293635
-0.00313338
-0.00326522
-0.00336071
-0.00343935
-0.00351338
-0.0036014
-0.00371049
-0.00383893
-0.00399184
-0.00416827
-0.00435618
-0.00452981
-0.00464714
-0.004642
-0.00176729
-0.00187562
-0.00211928
-0.00243215
-0.00274461
-0.00300669
-0.00320202
-0.00333092
-0.00341594
-0.00347111
-0.00350824
-0.00355
-0.00360516
-0.00368072
-0.00378989
-0.00393372
-0.00410078
-0.00425887
-0.00436564
-0.00435284
-0.00185743
-0.00196394
-0.00220784
-0.00251684
-0.00282253
-0.00307981
-0.00327676
-0.00341048
-0.00349866
-0.00354873
-0.00355017
-0.00351218
-0.00344815
-0.00338055
-0.00335775
-0.00341466
-0.00357265
-0.00381035
-0.00406168
-0.00423655
-0.00195587
-0.00206261
-0.00230439
-0.00260614
-0.00290141
-0.00315073
-0.00334808
-0.00349411
-0.00360121
-0.00368674
-0.00375232
-0.0037742
-0.0036662
-0.00339108
-0.00306966
-0.0028083
-0.00259901
-0.00239477
-0.00219922
-0.00206857
-0.00206751
-0.00217378
-0.00240874
-0.00269959
-0.00298218
-0.00321942
-0.00341171
-0.00356294
-0.00367469
-0.0036969
-0.00355923
-0.00331913
-0.00306417
-0.00285551
-0.0027087
-0.00260574
-0.00253931
-0.00250273
-0.00249722
-0.00255726
-0.00219586
-0.00228291
-0.00251057
-0.0027978
-0.00308706
-0.00334143
-0.00352005
-0.00355974
-0.00348344
-0.00337156
-0.00326335
-0.00318434
-0.00311446
-0.00303319
-0.00292726
-0.00275833
-0.00252459
-0.00224661
-0.00198068
-0.00181273
-0.00236742
-0.00243687
-0.00258165
-0.00277499
-0.00298411
-0.0031673
-0.00329976
-0.00336003
-0.00335763
-0.00332109
-0.00324394
-0.00314577
-0.00305266
-0.00295931
-0.0029243
-0.00298726
-0.00316983
-0.00346099
-0.00380511
-0.00413424
-0.00254901
-0.00262949
-0.00270089
-0.0028021
-0.00295248
-0.00312034
-0.00327168
-0.00337626
-0.00340644
-0.00339002
-0.00332802
-0.00320922
-0.00308618
-0.00294368
-0.00276242
-0.00254661
-0.00229358
-0.0020356
-0.00181848
-0.00171222
-0.00266134
-0.00273983
-0.00280202
-0.00287096
-0.0029777
-0.00310884
-0.00323525
-0.0033236
-0.00334111
-0.00330588
-0.00324327
-0.00313282
-0.00300976
-0.00289682
-0.0027749
-0.00266617
-0.00257529
-0.00251357
-0.00250354
-0.00259724
-0.00136465
-0.00392025
-0.00950609
-0.0135171
-0.0138523
-0.0121943
-0.0103348
-0.00890379
-0.00798164
-0.00749909
-0.00733421
-0.00726308
-0.00700983
-0.00651939
-0.00602109
-0.00567674
-0.00545373
-0.00529358
-0.00508406
-0.0047026
-0.00422333
-0.0038162
-0.00351141
-0.003228
-0.00290953
-0.00257523
-0.00227824
-0.00203073
-0.00179128
-0.00153304
-0.00128408
-0.00107214
-0.000868271
-0.000618289
-0.000320712
-2.40626e-05
0.00025214
0.000539488
0.000858374
0.00117914
0.00147776
0.00177548
0.0020908
0.00240037
0.00268889
0.00299318
0.00333135
0.00367324
0.00400948
0.00436964
0.00475345
0.00512021
0.0054761
0.0058544
0.00622873
0.00659882
0.00700077
0.00742005
0.00784086
0.00827955
0.00871981
0.00915075
0.00958957
0.0100458
0.0105136
0.0110003
0.0115015
0.0120068
0.0125118
0.0130262
0.0135508
0.0140891
0.0146422
0.0152088
0.0157846
0.0163681
0.0169602
0.0175645
0.0181831
0.0188128
0.0194552
0.0201092
0.0207774
0.0214576
0.0221496
0.0228545
0.0235738
0.0243081
0.0250552
0.0258182
0.0265935
0.0273867
0.0281929
0.0290195
0.0298534
0.0307163
0.0315949
0.0324804
0.03343
0.0343644
-0.00171729
-0.0039912
-0.00939527
-0.0133953
-0.0137857
-0.0121601
-0.0103109
-0.00888506
-0.00796672
-0.007487
-0.00732468
-0.00725606
-0.00700467
-0.00651511
-0.00601702
-0.00567285
-0.00545006
-0.00529032
-0.00508139
-0.00470021
-0.00422086
-0.00381373
-0.00350914
-0.003226
-0.00290772
-0.00257351
-0.00227659
-0.00202918
-0.00178987
-0.00153172
-0.0012828
-0.00107092
-0.000867158
-0.000617276
-0.000319735
-2.31042e-05
0.000253039
0.000540303
0.000859141
0.00117989
0.00147848
0.00177614
0.00209143
0.00240099
0.00268947
0.00299371
0.00333185
0.00367373
0.00400994
0.00437006
0.00475387
0.00512063
0.00547649
0.00585477
0.0062291
0.00659916
0.00700109
0.00742037
0.00784116
0.00827983
0.00872009
0.00915102
0.00958983
0.010046
0.0105138
0.0110005
0.0115018
0.012007
0.012512
0.0130264
0.013551
0.0140893
0.0146424
0.015209
0.0157848
0.0163683
0.0169604
0.0175646
0.0181832
0.0188129
0.0194553
0.0201093
0.0207775
0.0214578
0.0221497
0.0228546
0.0235739
0.0243082
0.0250553
0.0258183
0.0265936
0.0273868
0.028193
0.0290196
0.0298534
0.0307163
0.031595
0.0324804
0.0334301
0.0343646
-0.00213722
-0.00405619
-0.00915845
-0.013149
-0.013666
-0.0121157
-0.0102896
-0.00886861
-0.00795227
-0.00747439
-0.00731334
-0.00724601
-0.00699654
-0.006509
-0.00601258
-0.00566939
-0.00544687
-0.00528733
-0.00507886
-0.00469798
-0.00421864
-0.00381152
-0.00350705
-0.00322409
-0.00290598
-0.00257189
-0.00227507
-0.00202779
-0.00178859
-0.00153051
-0.00128165
-0.00106986
-0.000866213
-0.000616402
-0.000318867
-2.22497e-05
0.00025383
0.00054102
0.000859828
0.00118057
0.00147911
0.00177672
0.00209199
0.00240154
0.00268997
0.00299416
0.00333229
0.00367416
0.00401033
0.00437043
0.00475425
0.005121
0.00547683
0.00585509
0.00622942
0.00659945
0.00700136
0.00742064
0.00784142
0.00828008
0.00872034
0.00915126
0.00959005
0.0100462
0.010514
0.0110007
0.011502
0.0120072
0.0125122
0.0130266
0.0135512
0.0140895
0.0146425
0.0152091
0.0157849
0.0163684
0.0169605
0.0175648
0.0181833
0.018813
0.0194555
0.0201094
0.0207777
0.0214579
0.0221498
0.0228547
0.023574
0.0243083
0.0250554
0.0258184
0.0265937
0.0273869
0.0281931
0.0290196
0.0298535
0.0307164
0.031595
0.0324805
0.0334301
0.0343649
-0.00252408
-0.00408949
-0.00885084
-0.0128255
-0.0134987
-0.0120557
-0.0102634
-0.00884834
-0.00793412
-0.00745942
-0.00729955
-0.00723132
-0.00698219
-0.00649777
-0.00600546
-0.00566496
-0.00544307
-0.00528335
-0.00507519
-0.0046951
-0.00421641
-0.00380943
-0.00350476
-0.00322174
-0.00290389
-0.00257008
-0.00227339
-0.00202615
-0.00178705
-0.00152913
-0.00128042
-0.00106875
-0.000865202
-0.000615456
-0.000317945
-2.13449e-05
0.000254687
0.000541814
0.000860584
0.0011813
0.0014798
0.00177736
0.0020926
0.00240212
0.00269049
0.00299463
0.00333276
0.00367462
0.00401074
0.00437082
0.00475465
0.00512139
0.00547717
0.00585543
0.00622976
0.00659973
0.00700163
0.00742092
0.00784168
0.00828034
0.00872061
0.0091515
0.00959027
0.0100465
0.0105142
0.0110009
0.0115022
0.0120074
0.0125123
0.0130267
0.0135513
0.0140896
0.0146427
0.0152093
0.0157851
0.0163686
0.0169607
0.0175649
0.0181835
0.0188132
0.0194556
0.0201096
0.0207778
0.021458
0.0221499
0.0228548
0.0235741
0.0243084
0.0250555
0.0258185
0.0265937
0.027387
0.0281932
0.0290197
0.0298536
0.0307165
0.0315951
0.0324806
0.0334302
0.0343653
-0.0028836
-0.00413636
-0.00853453
-0.0124763
-0.0133115
-0.0119888
-0.0102355
-0.0088251
-0.00791221
-0.00744185
-0.00728305
-0.00721135
-0.00696069
-0.0064804
-0.00599463
-0.00565858
-0.00543761
-0.00527706
-0.00506892
-0.00469062
-0.00421394
-0.00380754
-0.00350218
-0.0032187
-0.00290127
-0.00256811
-0.00227153
-0.00202402
-0.00178486
-0.00152728
-0.00127896
-0.00106745
-0.000863933
-0.00061429
-0.0003169
-2.03354e-05
0.000255709
0.0005428
0.000861496
0.00118216
0.00148063
0.00177814
0.00209332
0.00240279
0.00269109
0.00299519
0.0033333
0.00367513
0.00401122
0.00437127
0.00475511
0.00512183
0.00547757
0.00585582
0.00623013
0.00660006
0.00700194
0.00742123
0.00784197
0.00828063
0.0087209
0.00915177
0.00959051
0.0100467
0.0105144
0.0110011
0.0115024
0.0120076
0.0125126
0.0130269
0.0135515
0.0140898
0.0146429
0.0152095
0.0157852
0.0163687
0.0169608
0.017565
0.0181836
0.0188133
0.0194557
0.0201097
0.0207779
0.0214581
0.02215
0.0228549
0.0235742
0.0243085
0.0250556
0.0258186
0.0265938
0.0273871
0.0281932
0.0290198
0.0298537
0.0307165
0.0315952
0.0324806
0.0334303
0.0343659
-0.00323715
-0.00422154
-0.00822489
-0.0121102
-0.0131088
-0.011917
-0.0102072
-0.00880032
-0.00788755
-0.00742206
-0.0072645
-0.00718786
-0.00693432
-0.00645866
-0.00598098
-0.00565027
-0.00542997
-0.00526756
-0.00505904
-0.00468368
-0.00421085
-0.0038058
-0.00349928
-0.00321481
-0.00289808
-0.00256618
-0.0022698
-0.00202151
-0.0017819
-0.00152476
-0.00127709
-0.00106574
-0.000862174
-0.000612732
-0.000315682
-1.9218e-05
0.000256935
0.000544029
0.00086259
0.00118318
0.00148168
0.00177917
0.00209422
0.00240358
0.00269183
0.00299588
0.00333394
0.00367573
0.00401179
0.00437182
0.00475565
0.00512234
0.00547803
0.00585627
0.00623055
0.00660043
0.0070023
0.00742159
0.00784231
0.00828097
0.00872123
0.00915207
0.00959079
0.0100469
0.0105147
0.0110013
0.0115026
0.0120078
0.0125128
0.0130271
0.0135517
0.01409
0.014643
0.0152096
0.0157854
0.0163689
0.016961
0.0175652
0.0181837
0.0188134
0.0194558
0.0201098
0.020778
0.0214582
0.0221501
0.022855
0.0235743
0.0243086
0.0250557
0.0258187
0.0265939
0.0273872
0.0281933
0.0290199
0.0298537
0.0307166
0.0315952
0.0324807
0.0334304
0.0343666
-0.00358716
-0.00434077
-0.00791995
-0.0117248
-0.0128882
-0.0118392
-0.0101785
-0.00877463
-0.00786045
-0.00739991
-0.00724422
-0.00716248
-0.00690568
-0.0064351
-0.00596629
-0.00564101
-0.00542047
-0.00525487
-0.00504537
-0.00467396
-0.00420671
-0.00380392
-0.00349596
-0.00321007
-0.00289431
-0.00256438
-0.00226847
-0.00201896
-0.00177838
-0.00152164
-0.00127473
-0.00106343
-0.000859631
-0.000610536
-0.000314166
-1.79371e-05
0.000258415
0.000545529
0.000863834
0.00118432
0.00148298
0.00178051
0.00209537
0.00240457
0.00269278
0.00299677
0.00333471
0.00367642
0.00401248
0.0043725
0.0047563
0.00512296
0.0054786
0.0058568
0.00623105
0.00660087
0.00700273
0.00742201
0.0078427
0.00828136
0.00872161
0.00915241
0.0095911
0.0100472
0.0105149
0.0110016
0.0115029
0.0120081
0.012513
0.0130274
0.0135519
0.0140902
0.0146432
0.0152098
0.0157856
0.0163691
0.0169612
0.0175654
0.0181839
0.0188136
0.019456
0.02011
0.0207781
0.0214583
0.0221502
0.0228551
0.0235745
0.0243087
0.0250558
0.0258188
0.026594
0.0273873
0.0281934
0.02902
0.0298538
0.0307167
0.0315953
0.0324807
0.0334304
0.0343675
-0.00392165
-0.00448495
-0.00762087
-0.0113208
-0.0126484
-0.0117545
-0.0101497
-0.0087488
-0.00783118
-0.00737528
-0.00722234
-0.00713595
-0.00687589
-0.00641069
-0.00595128
-0.00563146
-0.0054099
-0.00523988
-0.00502872
-0.00466177
-0.0042013
-0.00380155
-0.00349216
-0.00320461
-0.00288999
-0.00256258
-0.00226749
-0.00201661
-0.00177477
-0.00151831
-0.00127208
-0.00106047
-0.000856114
-0.00060747
-0.000312169
-1.63652e-05
0.00026025
0.000547354
0.000865196
0.00118551
0.00148448
0.00178217
0.0020968
0.00240581
0.00269404
0.00299795
0.00333565
0.00367724
0.00401332
0.00437332
0.00475706
0.00512371
0.00547934
0.00585747
0.00623164
0.00660142
0.00700324
0.00742251
0.00784319
0.00828184
0.00872206
0.00915282
0.00959148
0.0100476
0.0105153
0.0110019
0.0115032
0.0120084
0.0125133
0.0130276
0.0135522
0.0140905
0.0146435
0.0152101
0.0157858
0.0163693
0.0169614
0.0175656
0.0181841
0.0188138
0.0194562
0.0201101
0.0207783
0.0214585
0.0221504
0.0228553
0.0235746
0.0243088
0.025056
0.0258189
0.0265941
0.0273874
0.0281935
0.0290201
0.0298539
0.0307168
0.0315954
0.0324808
0.0334305
0.0343687
-0.00422936
-0.0046496
-0.00733575
-0.0109024
-0.0123889
-0.011662
-0.0101211
-0.00872335
-0.00779987
-0.00734798
-0.00719876
-0.00710847
-0.00684516
-0.00638536
-0.00593568
-0.0056216
-0.00539878
-0.00522359
-0.00501012
-0.0046477
-0.00419464
-0.00379854
-0.00348789
-0.00319862
-0.00288522
-0.00256063
-0.00226661
-0.00201444
-0.00177134
-0.00151522
-0.00126951
-0.00105708
-0.000851673
-0.000603455
-0.00030956
-1.43809e-05
0.000262548
0.000549597
0.000866711
0.00118667
0.00148605
0.00178404
0.00209844
0.00240728
0.00269565
0.00299951
0.00333685
0.00367822
0.00401431
0.00437427
0.00475793
0.00512461
0.00548026
0.00585832
0.00623239
0.0066021
0.00700386
0.00742309
0.00784378
0.00828243
0.00872261
0.00915333
0.00959194
0.010048
0.0105157
0.0110023
0.0115036
0.0120088
0.0125137
0.013028
0.0135525
0.0140907
0.0146438
0.0152103
0.0157861
0.0163696
0.0169616
0.0175658
0.0181843
0.018814
0.0194564
0.0201103
0.0207785
0.0214587
0.0221506
0.0228554
0.0235747
0.024309
0.0250561
0.025819
0.0265943
0.0273875
0.0281937
0.0290202
0.029854
0.0307169
0.0315955
0.0324808
0.0334305
0.03437
-0.00450264
-0.00483116
-0.00707375
-0.010475
-0.0121088
-0.0115594
-0.0100917
-0.00869845
-0.00776668
-0.00731783
-0.00717331
-0.00707998
-0.00681343
-0.00635885