/*--------------------------------*- C++ -*----------------------------------*\
| =========                 |                                                 |
| \\      /  F ield         | OpenFOAM: The Open Source CFD Toolbox           |
|  \\    /   O peration     | Version:  3.0.1                                 |
|   \\  /    A nd           | Web:      www.OpenFOAM.org                      |
|    \\/     M anipulation  |                                                 |
\*---------------------------------------------------------------------------*/
FoamFile
{
    version     2.0;
    format      ascii;
    class       surfaceScalarField;
    location    "3.1";
    object      phi;
}
// * * * * * * * * * * * * * * * * * * * * * * * * * * * * * * * * * * * * * //

dimensions      [0 3 -1 0 0 0 0];

internalField   nonuniform List<scalar> 
19000
(
1.19317e-06
3.68119e-07
1.16467e-06
9.65008e-08
1.12293e-06
1.37623e-07
1.15175e-06
-9.70225e-07
1.23034e-06
5.17392e-07
1.1271e-06
1.87365e-07
1.1173e-06
4.99108e-07
1.13697e-06
5.14636e-07
1.10883e-06
-3.36701e-07
1.14539e-06
-3.01955e-07
1.16036e-06
-2.46005e-07
1.14285e-06
-3.21719e-07
1.16608e-06
1.90009e-07
1.14239e-06
-2.45302e-07
1.16218e-06
4.1623e-07
1.12393e-06
1.74537e-07
1.13656e-06
4.81001e-07
1.10207e-06
2.78824e-07
1.10155e-06
3.03923e-07
2.59427e-07
1.0754e-06
1.2466e-06
3.45776e-07
1.22149e-06
1.2162e-07
1.17645e-06
1.82663e-07
1.20281e-06
-9.96589e-07
1.28329e-06
4.36912e-07
1.18382e-06
2.86835e-07
1.16544e-06
5.1749e-07
1.19786e-06
4.82218e-07
1.16937e-06
-3.0822e-07
1.20191e-06
-3.34488e-07
1.21551e-06
-2.59609e-07
1.20024e-06
-3.0645e-07
1.21785e-06
1.72401e-07
1.19979e-06
-2.27244e-07
1.20706e-06
4.08961e-07
1.18819e-06
1.93411e-07
1.17408e-06
4.95105e-07
1.17151e-06
2.81394e-07
1.13513e-06
3.40302e-07
2.36815e-07
1.15775e-06
1.30065e-06
3.2791e-07
1.28234e-06
1.39925e-07
1.2359e-06
2.29103e-07
1.2549e-06
-1.01559e-06
1.33282e-06
3.58999e-07
1.25091e-06
3.68736e-07
1.21701e-06
5.51399e-07
1.25959e-06
4.39638e-07
1.23443e-06
-2.83064e-07
1.26058e-06
-3.6064e-07
1.27212e-06
-2.71143e-07
1.26329e-06
-2.97619e-07
1.27298e-06
1.6271e-07
1.26276e-06
-2.17025e-07
1.26057e-06
4.11151e-07
1.25294e-06
2.01038e-07
1.23258e-06
5.15472e-07
1.23173e-06
2.82235e-07
1.20796e-06
3.6408e-07
2.42041e-07
1.20273e-06
1.35619e-06
3.15821e-07
1.34717e-06
1.48947e-07
1.30256e-06
2.73709e-07
1.31143e-06
-1.02445e-06
1.38139e-06
2.89038e-07
1.32481e-06
4.25313e-07
1.27741e-06
5.98801e-07
1.32188e-06
3.95171e-07
1.30428e-06
-2.65466e-07
1.32144e-06
-3.77794e-07
1.33178e-06
-2.81483e-07
1.32863e-06
-2.94477e-07
1.33282e-06
1.58521e-07
1.32607e-06
-2.1027e-07
1.32264e-06
4.14574e-07
1.3163e-06
2.07385e-07
1.30241e-06
5.29361e-07
1.29405e-06
2.90597e-07
1.28395e-06
3.74172e-07
2.57347e-07
1.26865e-06
1.41453e-06
3.09649e-07
1.41499e-06
1.48484e-07
1.37616e-06
3.12539e-07
1.37382e-06
-1.02212e-06
1.43143e-06
2.31434e-07
1.40119e-06
4.55544e-07
1.34935e-06
6.50644e-07
1.38701e-06
3.57511e-07
1.37849e-06
-2.56949e-07
1.38638e-06
-3.85675e-07
1.39581e-06
-2.90918e-07
1.39612e-06
-2.94785e-07
1.39739e-06
1.57249e-07
1.38938e-06
-2.02264e-07
1.38686e-06
4.17096e-07
1.37851e-06
2.15739e-07
1.37132e-06
5.36545e-07
1.35913e-06
3.02791e-07
1.35535e-06
3.77954e-07
2.7288e-07
1.33982e-06
1.47702e-06
3.08309e-07
1.48497e-06
1.40526e-07
1.455e-06
3.42511e-07
1.44216e-06
-1.00928e-06
1.48539e-06
1.88209e-07
1.47726e-06
4.63676e-07
1.43132e-06
6.96584e-07
1.45805e-06
3.30774e-07
1.45587e-06
-2.5477e-07
1.4567e-06
-3.86497e-07
1.46413e-06
-2.9835e-07
1.46585e-06
-2.96503e-07
1.46623e-06
1.56862e-07
1.45482e-06
-1.90852e-07
1.45147e-06
4.20443e-07
1.44098e-06
2.2623e-07
1.43845e-06
5.3908e-07
1.42598e-06
3.15256e-07
1.42675e-06
3.77181e-07
2.86635e-07
1.413e-06
1.54462e-06
3.09907e-07
1.557e-06
1.28145e-07
1.53689e-06
3.6262e-07
1.51568e-06
-9.88067e-07
1.54508e-06
1.58809e-07
1.55259e-06
4.56166e-07
1.51886e-06
7.30317e-07
1.53566e-06
3.13972e-07
1.53537e-06
-2.54477e-07
1.5317e-06
-3.82832e-07
1.53604e-06
-3.02684e-07
1.53747e-06
-2.97934e-07
1.53827e-06
1.56062e-07
1.52381e-06
-1.76397e-07
1.51886e-06
4.25396e-07
1.50672e-06
2.3837e-07
1.50799e-06
5.37812e-07
1.49671e-06
3.26539e-07
1.50208e-06
3.71808e-07
2.98165e-07
1.49055e-06
1.61751e-06
3.12523e-07
1.63142e-06
1.1424e-07
1.62006e-06
3.73977e-07
1.59351e-06
-9.6152e-07
1.61135e-06
1.40969e-07
1.62817e-06
4.39354e-07
1.60784e-06
7.50639e-07
1.61816e-06
3.03659e-07
1.61663e-06
-2.52951e-07
1.61005e-06
-3.76249e-07
1.61095e-06
-3.03587e-07
1.61096e-06
-2.97947e-07
1.61249e-06
1.54538e-07
1.59656e-06
-1.60468e-07
1.59129e-06
4.30661e-07
1.57833e-06
2.51332e-07
1.5834e-06
5.32745e-07
1.57346e-06
3.36477e-07
1.58288e-06
3.62383e-07
3.07465e-07
1.57358e-06
1.69527e-06
3.14823e-07
1.70869e-06
1.00821e-07
1.70382e-06
3.78846e-07
1.67512e-06
-9.32815e-07
1.68426e-06
1.31829e-07
1.70527e-06
4.18347e-07
1.69644e-06
7.59468e-07
1.70353e-06
2.96563e-07
1.69981e-06
-2.49224e-07
1.69108e-06
-3.67525e-07
1.68878e-06
-3.0128e-07
1.68688e-06
-2.96049e-07
1.68882e-06
1.52591e-07
1.67287e-06
-1.44515e-07
1.66944e-06
4.34094e-07
1.65666e-06
2.64107e-07
1.66574e-06
5.23673e-07
1.65678e-06
3.4543e-07
1.669e-06
3.50165e-07
3.14805e-07
1.66166e-06
1.77734e-06
3.16203e-07
1.78925e-06
8.89156e-08
1.78857e-06
3.79525e-07
1.76026e-06
-9.0451e-07
1.76338e-06
1.28716e-07
1.78503e-06
3.96687e-07
1.78489e-06
7.59612e-07
1.79076e-06
2.90693e-07
1.7852e-06
-2.43665e-07
1.77492e-06
-3.57243e-07
1.76992e-06
-2.96275e-07
1.76604e-06
-2.92174e-07
1.76802e-06
1.50607e-07
1.7528e-06
-1.29295e-07
1.75293e-06
4.33967e-07
1.74112e-06
2.75914e-07
1.7542e-06
5.10593e-07
1.74588e-06
3.5376e-07
1.75938e-06
3.36663e-07
3.20407e-07
1.75378e-06
1.86338e-06
3.16573e-07
1.87347e-06
7.88208e-08
1.87529e-06
3.77714e-07
1.84884e-06
-8.78068e-07
1.84806e-06
1.29501e-07
1.86833e-06
3.76417e-07
1.87437e-06
7.53575e-07
1.87986e-06
2.85203e-07
1.87321e-06
-2.37017e-07
1.86193e-06
-3.45963e-07
1.85491e-06
-2.89256e-07
1.8492e-06
-2.86468e-07
1.85103e-06
1.48783e-07
1.83664e-06
-1.14903e-07
1.84114e-06
4.29462e-07
1.83061e-06
2.86449e-07
1.84727e-06
4.93924e-07
1.83943e-06
3.616e-07
1.85282e-06
3.23278e-07
3.24248e-07
1.84898e-06
1.95335e-06
3.16063e-07
1.96176e-06
7.04067e-08
1.96504e-06
3.74438e-07
1.94082e-06
-8.53851e-07
1.93771e-06
1.32616e-07
1.95574e-06
3.58381e-07
1.9661e-06
7.4322e-07
1.97142e-06
2.79877e-07
1.96431e-06
-2.29907e-07
1.95244e-06
-3.34088e-07
1.94414e-06
-2.80958e-07
1.93686e-06
-2.79187e-07
1.93855e-06
1.47094e-07
1.92467e-06
-1.01032e-07
1.93354e-06
4.20601e-07
1.92417e-06
2.95814e-07
1.9436e-06
4.74495e-07
1.93636e-06
3.68842e-07
1.94847e-06
3.11162e-07
3.26046e-07
1.94667e-06
2.04741e-06
3.14845e-07
2.05447e-06
6.33478e-08
2.05865e-06
3.7025e-07
2.03624e-06
-8.31439e-07
2.03193e-06
1.36932e-07
2.04767e-06
3.42638e-07
2.06107e-06
7.29817e-07
2.0662e-06
2.74754e-07
2.05903e-06
-2.22744e-07
2.04671e-06
-3.21767e-07
2.03779e-06
-2.72033e-07
2.02921e-06
-2.70613e-07
2.03095e-06
1.45356e-07
2.01716e-06
-8.72431e-08
2.02979e-06
4.07977e-07
2.02132e-06
3.04279e-07
2.04244e-06
4.53375e-07
2.03612e-06
3.75165e-07
2.04606e-06
3.01218e-07
3.25396e-07
2.04671e-06
2.14579e-06
3.13055e-07
2.15186e-06
5.7281e-08
2.15667e-06
3.65435e-07
2.13529e-06
-8.10051e-07
2.13059e-06
1.41626e-07
2.14439e-06
3.28842e-07
2.16003e-06
7.14178e-07
2.16482e-06
2.69959e-07
2.15786e-06
-2.15779e-07
2.14503e-06
-3.08943e-07
2.13596e-06
-2.62959e-07
2.12635e-06
-2.61008e-07
2.12836e-06
1.43349e-07
2.11428e-06
-7.31617e-08
2.1298e-06
3.92454e-07
2.12201e-06
3.12074e-07
2.14371e-06
4.3167e-07
2.13876e-06
3.80114e-07
2.14601e-06
2.93976e-07
3.22072e-07
2.14933e-06
2.24876e-06
3.10786e-07
2.25414e-06
5.19023e-08
2.25945e-06
3.60121e-07
2.23827e-06
-7.88866e-07
2.23379e-06
1.46098e-07
2.2461e-06
3.16537e-07
2.26349e-06
6.96789e-07
2.26779e-06
2.65658e-07
2.26119e-06
-2.09179e-07
2.24771e-06
-2.95465e-07
2.23877e-06
-2.54021e-07
2.22835e-06
-2.50582e-07
2.23078e-06
1.40916e-07
2.2162e-06
-5.85785e-08
2.23369e-06
3.74956e-07
2.22651e-06
3.19255e-07
2.2478e-06
4.10381e-07
2.24471e-06
3.83203e-07
2.24923e-06
2.89456e-07
3.16308e-07
2.255e-06
2.35657e-06
3.0809e-07
2.36145e-06
4.70183e-08
2.36725e-06
3.54328e-07
2.34559e-06
-7.67212e-07
2.34176e-06
1.49928e-07
2.35296e-06
3.05342e-07
2.37184e-06
6.77907e-07
2.37548e-06
2.62019e-07
2.36936e-06
-2.03061e-07
2.35508e-06
-2.81184e-07
2.34639e-06
-2.45335e-07
2.33533e-06
-2.39516e-07
2.33823e-06
1.38011e-07
2.32312e-06
-4.3465e-08
2.34174e-06
3.56336e-07
2.3353e-06
3.25697e-07
2.35535e-06
3.9033e-07
2.35453e-06
3.84018e-07
2.35666e-06
2.87329e-07
3.08682e-07
2.36429e-06
2.46949e-06
3.04991e-07
2.47396e-06
4.25537e-08
2.48029e-06
3.47993e-07
2.4577e-06
-7.44621e-07
2.4548e-06
1.52831e-07
2.4651e-06
2.95038e-07
2.48537e-06
6.57644e-07
2.4882e-06
2.59181e-07
2.48265e-06
-1.9751e-07
2.46749e-06
-2.66021e-07
2.45904e-06
-2.36884e-07
2.44751e-06
-2.27987e-07
2.45082e-06
1.34703e-07
2.43533e-06
-2.79725e-08
2.4543e-06
3.3736e-07
2.44886e-06
3.31139e-07
2.4671e-06
3.72087e-07
2.46875e-06
3.82372e-07
2.469e-06
2.87084e-07
2.9989e-07
2.47779e-06
2.5878e-06
3.01484e-07
2.59182e-06
3.85314e-08
2.59882e-06
3.40998e-07
2.57502e-06
-7.20821e-07
2.57322e-06
1.54627e-07
2.58269e-06
2.85572e-07
2.60429e-06
6.3604e-07
2.60624e-06
2.57235e-07
2.60131e-06
-1.92585e-07
2.58528e-06
-2.49986e-07
2.57695e-06
-2.28553e-07
2.56516e-06
-2.16205e-07
2.56871e-06
1.31163e-07
2.55311e-06
-1.23801e-08
2.5718e-06
3.1867e-07
2.56765e-06
3.35293e-07
2.58379e-06
3.55943e-07
2.5878e-06
3.78365e-07
2.58677e-06
2.88112e-07
2.90609e-07
2.59605e-06
2.71177e-06
2.97547e-07
2.71526e-06
3.50394e-08
2.72305e-06
3.33207e-07
2.69791e-06
-6.95682e-07
2.69734e-06
1.55195e-07
2.7059e-06
2.77012e-07
2.72884e-06
6.13106e-07
2.72985e-06
2.56217e-07
2.72557e-06
-1.88303e-07
2.70877e-06
-2.33189e-07
2.70037e-06
-2.20152e-07
2.68858e-06
-2.04414e-07
2.69211e-06
1.2763e-07
2.67676e-06
2.97701e-09
2.69468e-06
3.00752e-07
2.69201e-06
3.37958e-07
2.70603e-06
3.4192e-07
2.71208e-06
3.72312e-07
2.71039e-06
2.89802e-07
2.81422e-07
2.71958e-06
2.84167e-06
2.93145e-07
2.84451e-06
3.21977e-08
2.85323e-06
3.24485e-07
2.82671e-06
-6.6916e-07
2.82746e-06
1.5445e-07
2.83499e-06
2.69481e-07
2.85923e-06
5.88864e-07
2.85934e-06
2.56109e-07
2.85566e-06
-1.84625e-07
2.8383e-06
-2.15826e-07
2.82958e-06
-2.1143e-07
2.81806e-06
-1.92896e-07
2.82132e-06
1.2437e-07
2.8065e-06
1.77907e-08
2.82335e-06
2.83911e-07
2.82222e-06
3.39089e-07
2.83429e-06
3.29842e-07
2.842e-06
3.64601e-07
2.84014e-06
2.91663e-07
2.72747e-07
2.84882e-06
2.9778e-06
2.88239e-07
2.97987e-06
3.01326e-08
2.98964e-06
3.14714e-07
2.96172e-06
-6.41246e-07
2.96385e-06
1.5232e-07
2.97024e-06
2.63095e-07
2.99573e-06
5.63373e-07
2.995e-06
2.56838e-07
2.99183e-06
-1.8145e-07
2.97416e-06
-1.98162e-07
2.96484e-06
-2.02112e-07
2.95387e-06
-1.81921e-07
2.95662e-06
1.21619e-07
2.94257e-06
3.18426e-08
2.95822e-06
2.68263e-07
2.95851e-06
3.38795e-07
2.96893e-06
3.19425e-07
2.97795e-06
3.55576e-07
2.97627e-06
2.93345e-07
2.64891e-07
2.98413e-06
3.12045e-06
2.82792e-07
3.12162e-06
2.89624e-08
3.13254e-06
3.03795e-07
3.10324e-06
-6.11943e-07
3.10681e-06
1.48751e-07
3.11197e-06
2.57931e-07
3.1386e-06
5.36741e-07
3.13716e-06
2.58277e-07
3.13432e-06
-1.78604e-07
3.11669e-06
-1.80529e-07
3.10647e-06
-1.91892e-07
3.09628e-06
-1.71732e-07
3.09838e-06
1.19513e-07
3.08515e-06
4.50721e-08
3.09965e-06
2.53767e-07
3.10118e-06
3.37262e-07
3.11016e-06
3.10443e-07
3.12032e-06
3.45422e-07
3.11903e-06
2.9463e-07
2.58081e-07
3.12584e-06
3.26993e-06
2.76772e-07
3.2701e-06
2.87908e-08
3.28225e-06
2.91649e-07
3.25156e-06
-5.81258e-07
3.25659e-06
1.4372e-07
3.26052e-06
2.54002e-07
3.28814e-06
5.09129e-07
3.28617e-06
2.60239e-07
3.28342e-06
-1.75852e-07
3.26619e-06
-1.63301e-07
3.25478e-06
-1.80476e-07
3.24552e-06
-1.62474e-07
3.24698e-06
1.18053e-07
3.23447e-06
5.75811e-08
3.24798e-06
2.40261e-07
3.25056e-06
3.34675e-07
3.25821e-06
3.02793e-07
3.26939e-06
3.34247e-07
3.26872e-06
2.95298e-07
2.52497e-07
3.2743e-06
3.42655e-06
2.70154e-07
3.42564e-06
2.97038e-08
3.43907e-06
2.78217e-07
3.40703e-06
-5.49218e-07
3.4135e-06
1.37246e-07
3.41625e-06
2.51253e-07
3.44462e-06
4.80759e-07
3.44239e-06
2.6247e-07
3.43944e-06
-1.72897e-07
3.42301e-06
-1.46871e-07
3.41016e-06
-1.67627e-07
3.40185e-06
-1.54169e-07
3.4028e-06
1.17102e-07
3.3908e-06
6.95843e-08
3.40348e-06
2.27579e-07
3.40703e-06
3.31133e-07
3.41332e-06
2.965e-07
3.42539e-06
3.22174e-07
3.42568e-06
2.95006e-07
2.48305e-07
3.42988e-06
3.59065e-06
2.62919e-07
3.58858e-06
3.17699e-08
3.60333e-06
2.63463e-07
3.57e-06
-5.15884e-07
3.57784e-06
1.294e-07
3.57953e-06
2.49563e-07
3.60838e-06
4.51916e-07
3.6062e-06
2.6465e-07
3.60269e-06
-1.69389e-07
3.58745e-06
-1.31631e-07
3.57303e-06
-1.53205e-07
3.56555e-06
-1.46692e-07
3.56625e-06
1.16405e-07
3.55448e-06
8.13528e-08
3.56644e-06
2.15615e-07
3.57099e-06
3.26588e-07
3.57582e-06
2.91664e-07
3.58855e-06
3.09444e-07
3.59025e-06
2.93306e-07
2.45571e-07
3.59299e-06
3.76257e-06
2.55055e-07
3.7593e-06
3.50383e-08
3.77538e-06
2.4738e-07
3.74086e-06
-4.81361e-07
3.74995e-06
1.20316e-07
3.75076e-06
2.48745e-07
3.77973e-06
4.22952e-07
3.77798e-06
2.66396e-07
3.77355e-06
-1.64955e-07
3.75984e-06
-1.1792e-07
3.74384e-06
-1.37211e-07
3.73691e-06
-1.39757e-07
3.73769e-06
1.15617e-07
3.7259e-06
9.31512e-08
3.73714e-06
2.0437e-07
3.74286e-06
3.2087e-07
3.74624e-06
2.8828e-07
3.7591e-06
2.96583e-07
3.76271e-06
2.89696e-07
2.44138e-07
3.76415e-06
3.94269e-06
2.46554e-07
3.93819e-06
3.95357e-08
3.95557e-06
2.30002e-07
3.92003e-06
-4.45818e-07
3.93016e-06
1.10188e-07
3.93036e-06
2.4854e-07
3.95902e-06
3.94292e-07
3.95816e-06
2.67261e-07
3.95241e-06
-1.59206e-07
3.94046e-06
-1.05975e-07
3.92307e-06
-1.19819e-07
3.91627e-06
-1.32956e-07
3.9175e-06
1.14382e-07
3.90552e-06
1.05139e-07
3.91588e-06
1.94009e-07
3.92301e-06
3.13734e-07
3.92511e-06
2.86183e-07
3.93743e-06
2.84269e-07
3.94325e-06
2.83875e-07
2.43538e-07
3.94385e-06
4.13139e-06
2.37414e-07
4.12566e-06
4.52626e-08
4.14425e-06
2.1141e-07
4.10793e-06
-4.0949e-07
4.11884e-06
9.92791e-08
4.11876e-06
2.48616e-07
4.14663e-06
3.66424e-07
4.14712e-06
2.6677e-07
4.13973e-06
-1.51815e-07
4.12961e-06
-9.5856e-08
4.11117e-06
-1.0138e-07
4.10404e-06
-1.2583e-07
4.10601e-06
1.12417e-07
4.09385e-06
1.17294e-07
4.10301e-06
1.84849e-07
4.11175e-06
3.04997e-07
4.11296e-06
2.84974e-07
4.12404e-06
2.73185e-07
4.13201e-06
2.75904e-07
2.42999e-07
4.13255e-06
4.32907e-06
2.27645e-07
4.32215e-06
5.21851e-08
4.34181e-06
1.9175e-07
4.305e-06
-3.72685e-07
4.31637e-06
8.79168e-08
4.31642e-06
2.48565e-07
4.34295e-06
3.3989e-07
4.34527e-06
2.64451e-07
4.33601e-06
-1.42558e-07
4.32759e-06
-8.74361e-08
4.30856e-06
-8.23419e-08
4.3007e-06
-1.17976e-07
4.30354e-06
1.09576e-07
4.29139e-06
1.29442e-07
4.29902e-06
1.77225e-07
4.30939e-06
2.94625e-07
4.31022e-06
2.84141e-07
4.31958e-06
2.63831e-07
4.32925e-06
2.6623e-07
2.41631e-07
4.33062e-06
4.53615e-06
2.17269e-07
4.52811e-06
6.02299e-08
4.54862e-06
1.71235e-07
4.51171e-06
-3.35779e-07
4.52314e-06
7.6493e-08
4.52378e-06
2.47923e-07
4.54841e-06
3.15256e-07
4.55294e-06
2.59925e-07
4.54181e-06
-1.31431e-07
4.53477e-06
-8.0393e-08
4.51563e-06
-6.32056e-08
4.50674e-06
-1.0908e-07
4.51046e-06
1.05856e-07
4.49863e-06
1.4127e-07
4.50437e-06
1.71482e-07
4.51627e-06
2.82727e-07
4.51731e-06
2.83105e-07
4.5247e-06
2.56438e-07
4.53532e-06
2.55614e-07
2.38662e-07
4.53828e-06
4.75306e-06
2.06323e-07
4.74401e-06
6.92781e-08
4.76509e-06
1.50156e-07
4.72854e-06
-2.99229e-07
4.73957e-06
6.54684e-08
4.74132e-06
2.46172e-07
4.76349e-06
2.93085e-07
4.77038e-06
2.53029e-07
4.7577e-06
-1.18749e-07
4.75156e-06
-7.42485e-08
4.73282e-06
-4.44655e-08
4.72266e-06
-9.89212e-08
4.72716e-06
1.01355e-07
4.71599e-06
1.5244e-07
4.71967e-06
1.67804e-07
4.73276e-06
2.69634e-07
4.73454e-06
2.81329e-07
4.74009e-06
2.50889e-07
4.75072e-06
2.44976e-07
2.33675e-07
4.75571e-06
4.98025e-06
1.94866e-07
4.97037e-06
7.9158e-08
4.99164e-06
1.28887e-07
4.95598e-06
-2.63565e-07
4.96608e-06
5.53714e-08
4.96949e-06
2.42761e-07
4.98876e-06
2.73812e-07
4.99783e-06
2.43964e-07
4.98419e-06
-1.05117e-07
4.97848e-06
-6.85398e-08
4.96051e-06
-2.64914e-08
4.94899e-06
-8.74054e-08
4.95408e-06
9.62687e-08
4.9439e-06
1.62618e-07
4.94546e-06
1.66243e-07
4.95927e-06
2.55828e-07
4.96229e-06
2.78307e-07
4.96628e-06
2.46904e-07
4.97621e-06
2.35045e-07
2.26821e-07
4.98306e-06
5.2182e-06
1.8298e-07
5.20772e-06
8.96451e-08
5.22871e-06
1.07895e-07
5.19454e-06
-2.29396e-07
5.20314e-06
4.67673e-08
5.20873e-06
2.37177e-07
5.22499e-06
2.57551e-07
5.23563e-06
2.33324e-07
5.22175e-06
-9.12372e-08
5.21611e-06
-6.28967e-08
5.19914e-06
-9.52333e-09
5.18629e-06
-7.4554e-08
5.19167e-06
9.0885e-08
5.1828e-06
1.71489e-07
5.18231e-06
1.66728e-07
5.19629e-06
2.41849e-07
5.20093e-06
2.7367e-07
5.20378e-06
2.44057e-07
5.21249e-06
2.26334e-07
2.18657e-07
5.22065e-06
5.4674e-06
1.70769e-07
5.45659e-06
1.00456e-07
5.47671e-06
8.77686e-08
5.44472e-06
-1.97406e-07
5.45128e-06
4.02126e-08
5.4594e-06
2.29057e-07
5.47304e-06
2.43914e-07
5.48439e-06
2.21975e-07
5.47081e-06
-7.76629e-08
5.465e-06
-5.70872e-08
5.44916e-06
6.31831e-09
5.43505e-06
-6.04462e-08
5.44041e-06
8.55306e-08
5.43314e-06
1.78759e-07
5.43072e-06
1.69149e-07
5.44441e-06
2.28153e-07
5.45086e-06
2.67219e-07
5.45301e-06
2.41907e-07
5.46035e-06
2.18997e-07
2.09982e-07
5.46902e-06
5.72837e-06
1.5836e-07
5.71756e-06
1.11263e-07
5.73605e-06
6.92779e-08
5.70702e-06
-1.68372e-07
5.71113e-06
3.61032e-08
5.72175e-06
2.18429e-07
5.7336e-06
2.32066e-07
5.74487e-06
2.1071e-07
5.73186e-06
-6.46569e-08
5.72577e-06
-5.09935e-08
5.71103e-06
2.10527e-08
5.6958e-06
-4.52077e-08
5.70078e-06
8.05449e-08
5.69533e-06
1.84213e-07
5.69132e-06
1.73159e-07
5.70418e-06
2.15295e-07
5.71254e-06
2.58853e-07
5.71448e-06
2.39971e-07
5.72043e-06
2.1305e-07
2.01488e-07
5.72892e-06
6.00166e-06
1.45894e-07
5.99122e-06
1.21705e-07
6.00695e-06
5.35447e-08
5.98185e-06
-1.43276e-07
5.98354e-06
3.44199e-08
5.99609e-06
2.05876e-07
6.00708e-06
2.21073e-07
6.01785e-06
1.99939e-07
6.00539e-06
-5.21901e-08
5.99891e-06
-4.45123e-08
5.98513e-06
3.48274e-08
5.96895e-06
-2.90237e-08
5.97326e-06
7.6235e-08
5.96985e-06
1.87616e-07
5.96474e-06
1.7827e-07
5.97621e-06
2.03824e-07
5.98646e-06
2.48606e-07
5.98866e-06
2.37768e-07
5.99332e-06
2.08387e-07
1.93618e-07
6.0012e-06
6.28786e-06
1.3352e-07
6.27815e-06
1.31417e-07
6.29016e-06
4.15327e-08
6.26961e-06
-1.22724e-07
6.2694e-06
3.46255e-08
6.28295e-06
1.9233e-07
6.29368e-06
2.1034e-07
6.30366e-06
1.8996e-07
6.29148e-06
-4.00041e-08
6.28445e-06
-3.74853e-08
6.27165e-06
4.76296e-08
6.25483e-06
-1.22065e-08
6.25839e-06
7.26726e-08
6.25721e-06
1.88796e-07
6.25162e-06
1.83863e-07
6.26125e-06
1.94188e-07
6.2731e-06
2.36763e-07
6.2761e-06
2.34766e-07
6.27961e-06
2.04875e-07
1.86586e-07
6.28664e-06
6.58761e-06
1.21381e-07
6.57898e-06
1.40045e-07
6.58765e-06
3.28624e-08
6.57074e-06
-1.05812e-07
6.56943e-06
3.59355e-08
6.5831e-06
1.78661e-07
6.59335e-06
2.00087e-07
6.60176e-06
1.81556e-07
6.58954e-06
-2.77917e-08
6.58231e-06
-3.02481e-08
6.57091e-06
5.90234e-08
6.55399e-06
4.71687e-09
6.55682e-06
6.98395e-08
6.55805e-06
1.87566e-07
6.55259e-06
1.89326e-07
6.56008e-06
1.86695e-07
6.57298e-06
2.2387e-07
6.57731e-06
2.30428e-07
6.57992e-06
2.02271e-07
1.80544e-07
6.58596e-06
6.90156e-06
1.09607e-07
6.89438e-06
1.47232e-07
6.90025e-06
2.69927e-08
6.88593e-06
-9.1498e-08
6.88404e-06
3.78317e-08
6.89751e-06
1.65192e-07
6.90668e-06
1.90914e-07
6.91305e-06
1.75189e-07
6.90133e-06
-1.60728e-08
6.89407e-06
-2.29872e-08
6.88415e-06
6.8944e-08
6.86745e-06
2.14102e-08
6.86934e-06
6.79545e-08
6.87299e-06
1.83916e-07
6.86827e-06
1.94038e-07
6.87347e-06
1.81502e-07
6.88673e-06
2.10612e-07
6.89277e-06
2.24388e-07
6.89487e-06
2.00168e-07
1.75607e-07
6.89981e-06
7.23042e-06
9.83282e-08
7.22519e-06
1.52462e-07
7.22843e-06
2.37462e-08
7.21606e-06
-7.91248e-08
7.21376e-06
4.0126e-08
7.22695e-06
1.52003e-07
7.23554e-06
1.8233e-07
7.24023e-06
1.70495e-07
7.22864e-06
-4.47622e-09
7.2213e-06
-1.56555e-08
7.21261e-06
7.76329e-08
7.19625e-06
3.77787e-08
7.19689e-06
6.73112e-08
7.20265e-06
1.78157e-07
7.19924e-06
1.9745e-07
7.20229e-06
1.78448e-07
7.21504e-06
1.97867e-07
7.22294e-06
2.16483e-07
7.22509e-06
1.98015e-07
1.71812e-07
7.22889e-06
7.5749e-06
8.76548e-08
7.57227e-06
1.55086e-07
7.57292e-06
2.30964e-08
7.56209e-06
-6.82867e-08
7.55929e-06
4.29179e-08
7.57248e-06
1.38814e-07
7.58086e-06
1.73951e-07
7.58414e-06
1.6722e-07
7.57218e-06
7.47545e-09
7.56445e-06
-7.92448e-09
7.55711e-06
8.49791e-08
7.54128e-06
5.36091e-08
7.54038e-06
6.8207e-08
7.54774e-06
1.70801e-07
7.54606e-06
1.99129e-07
7.54735e-06
1.7716e-07
7.55886e-06
1.86353e-07
7.56838e-06
2.06965e-07
7.57119e-06
1.95202e-07
1.69005e-07
7.574e-06
7.93579e-06
7.76759e-08
7.93584e-06
1.55033e-07
7.93488e-06
2.40607e-08
7.92493e-06
-5.83403e-08
7.922e-06
4.5856e-08
7.93497e-06
1.25839e-07
7.94478e-06
1.64145e-07
7.94661e-06
1.6539e-07
7.93252e-06
2.15638e-08
7.92404e-06
5.52305e-10
7.91828e-06
9.07412e-08
7.9034e-06
6.8488e-08
7.90073e-06
7.0873e-08
7.90902e-06
1.62518e-07
7.90934e-06
1.9881e-07
7.90945e-06
1.77048e-07
7.91918e-06
1.76624e-07
7.92977e-06
1.96376e-07
7.93374e-06
1.91229e-07
1.66811e-07
7.93593e-06
8.31389e-06
6.84652e-08
8.31619e-06
1.52738e-07
8.31522e-06
2.50285e-08
8.30612e-06
-4.92418e-08
8.3029e-06
4.90714e-08
8.31437e-06
1.14375e-07
8.32611e-06
1.52407e-07
8.32517e-06
1.66326e-07
8.30953e-06
3.72022e-08
8.30093e-06
9.15765e-09
8.29683e-06
9.48336e-08
8.28323e-06
8.20882e-08
8.27891e-06
7.51958e-08
8.2873e-06
1.54128e-07
8.28974e-06
1.9637e-07
8.28932e-06
1.77466e-07
8.29702e-06
1.68925e-07
8.308e-06
1.85394e-07
8.31336e-06
1.85871e-07
1.64713e-07
8.31546e-06
8.71002e-06
6.01049e-08
8.7145e-06
1.48256e-07
8.71276e-06
2.67738e-08
8.70582e-06
-4.22999e-08
8.70144e-06
5.34466e-08
8.70615e-06
1.09671e-07
8.71301e-06
1.45544e-07
8.71601e-06
1.63322e-07
8.704e-06
4.92162e-08
8.69622e-06
1.69321e-08
8.69354e-06
9.75196e-08
8.6814e-06
9.42252e-08
8.67575e-06
8.08477e-08
8.68355e-06
1.46326e-07
8.68797e-06
1.91956e-07
8.68768e-06
1.77747e-07
8.69339e-06
1.63222e-07
8.7041e-06
1.74678e-07
8.71079e-06
1.79186e-07
1.62231e-07
8.71327e-06
9.12507e-06
5.26514e-08
9.13166e-06
1.41668e-07
9.12809e-06
3.03407e-08
9.11966e-06
-3.387e-08
9.11161e-06
6.15016e-08
9.11405e-06
1.07233e-07
9.12422e-06
1.35367e-07
9.1297e-06
1.57849e-07
9.11848e-06
6.04331e-08
9.11058e-06
2.4838e-08
9.10907e-06
9.90233e-08
9.0987e-06
1.04596e-07
9.09212e-06
8.74328e-08
9.09888e-06
1.3956e-07
9.10489e-06
1.8595e-07
9.1053e-06
1.77333e-07
9.10931e-06
1.59217e-07
9.11916e-06
1.64826e-07
9.12689e-06
1.71454e-07
1.59036e-07
9.13008e-06
9.55996e-06
4.61516e-08
9.56781e-06
1.33819e-07
9.56291e-06
3.52375e-08
9.55461e-06
-2.55639e-08
9.5491e-06
6.70055e-08
9.54958e-06
1.06755e-07
9.55798e-06
1.26964e-07
9.56392e-06
1.51906e-07
9.55348e-06
7.0877e-08
9.545e-06
3.33199e-08
9.54435e-06
9.96715e-08
9.53593e-06
1.13019e-07
9.52889e-06
9.44654e-08
9.53434e-06
1.34114e-07
9.54139e-06
1.78904e-07
9.54287e-06
1.7585e-07
9.54562e-06
1.56464e-07
9.55419e-06
1.56263e-07
9.56257e-06
1.63074e-07
1.54946e-07
9.56666e-06
1.00156e-05
4.06386e-08
1.00242e-05
1.25254e-07
1.0019e-05
4.04464e-08
1.00117e-05
-1.825e-08
1.00074e-05
7.12515e-08
1.00063e-05
1.07871e-07
1.00127e-05
1.2057e-07
1.0019e-05
1.45656e-07
1.00097e-05
8.01859e-08
1.00006e-05
4.2426e-08
1.00003e-05
9.99236e-08
9.99391e-06
1.19419e-07
9.9869e-06
1.01473e-07
9.99099e-06
1.3002e-07
9.99856e-06
1.71338e-07
1.00012e-05
1.73174e-07
1.00033e-05
1.54392e-07
1.00104e-05
1.49201e-07
1.00189e-05
1.54551e-07
1.49922e-07
1.00239e-05
1.04932e-05
3.61148e-08
1.05025e-05
1.15934e-07
1.04971e-05
4.58325e-08
1.04905e-05
-1.16123e-08
1.04874e-05
7.42659e-08
1.04853e-05
1.10042e-07
1.04895e-05
1.16307e-07
1.04957e-05
1.39492e-07
1.04878e-05
8.81368e-08
1.04784e-05
5.17933e-08
1.04781e-05
1.00196e-07
1.04736e-05
1.23918e-07
1.0467e-05
1.08044e-07
1.04699e-05
1.27191e-07
1.04775e-05
1.6372e-07
1.04813e-05
1.69385e-07
1.04832e-05
1.52485e-07
1.04888e-05
1.43576e-07
1.0497e-05
1.46395e-07
1.44074e-07
1.05028e-05
1.09936e-05
3.25318e-08
1.10035e-05
1.06081e-07
1.09982e-05
5.10766e-08
1.09915e-05
-4.85777e-09
1.09898e-05
7.58791e-08
1.09873e-05
1.1258e-07
1.09896e-05
1.14008e-07
1.09952e-05
1.33887e-07
1.09887e-05
9.46021e-08
1.09795e-05
6.10555e-08
1.09789e-05
1.00732e-07
1.0976e-05
1.26837e-07
1.09702e-05
1.13878e-07
1.0972e-05
1.25398e-07
1.09793e-05
1.56399e-07
1.0984e-05
1.6465e-07
1.09862e-05
1.50345e-07
1.09907e-05
1.39101e-07
1.0998e-05
1.39003e-07
1.37683e-07
1.10044e-05
1.15181e-05
2.98169e-08
1.15281e-05
9.60269e-08
1.15232e-05
5.59693e-08
1.15155e-05
2.83605e-09
1.15153e-05
7.60888e-08
1.15134e-05
1.14542e-07
1.15141e-05
1.13329e-07
1.15187e-05
1.29195e-07
1.15136e-05
9.97144e-08
1.15048e-05
6.98832e-08
1.15039e-05
1.01605e-07
1.15023e-05
1.28464e-07
1.14974e-05
1.18765e-07
1.14984e-05
1.24386e-07
1.15052e-05
1.49585e-07
1.15107e-05
1.59232e-07
1.15132e-05
1.47757e-07
1.15169e-05
1.35409e-07
1.15234e-05
1.32562e-07
1.31149e-07
1.15299e-05
1.20678e-05
2.78686e-08
1.20775e-05
8.62895e-08
1.2073e-05
6.04549e-08
1.2064e-05
1.18657e-08
1.2065e-05
7.50593e-08
1.20645e-05
1.15099e-07
1.2064e-05
1.13759e-07
1.20676e-05
1.25642e-07
1.20636e-05
1.03739e-07
1.20554e-05
7.80078e-08
1.20543e-05
1.02778e-07
1.20537e-05
1.29061e-07
1.20498e-05
1.2261e-07
1.20503e-05
1.23923e-07
1.20565e-05
1.43407e-07
1.20623e-05
1.53395e-07
1.20654e-05
1.44629e-07
1.20687e-05
1.32142e-07
1.20742e-05
1.27039e-07
1.24833e-07
1.20805e-05
1.26439e-05
2.65658e-08
1.26526e-05
7.76252e-08
1.26484e-05
6.46142e-08
1.26387e-05
2.15442e-08
1.26404e-05
7.33532e-08
1.26416e-05
1.13948e-07
1.26407e-05
1.14633e-07
1.2643e-05
1.23335e-07
1.26398e-05
1.06983e-07
1.26325e-05
8.52519e-08
1.26311e-05
1.04155e-07
1.26313e-05
1.28879e-07
1.26286e-05
1.25371e-07
1.26287e-05
1.23788e-07
1.26342e-05
1.37918e-07
1.26402e-05
1.47349e-07
1.26439e-05
1.40964e-07
1.2647e-05
1.29022e-07
1.26518e-05
1.22281e-07
1.1898e-07
1.26576e-05
1.32477e-05
2.57593e-08
1.32546e-05
7.07872e-08
1.32516e-05
6.76367e-08
1.32419e-05
3.12138e-08
1.32432e-05
7.20015e-08
1.32459e-05
1.11326e-07
1.32452e-05
1.15329e-07
1.32464e-05
1.22137e-07
1.32436e-05
1.09747e-07
1.32373e-05
9.15766e-08
1.32358e-05
1.05612e-07
1.32366e-05
1.28118e-07
1.32349e-05
1.2708e-07
1.32349e-05
1.23741e-07
1.32397e-05
1.33126e-07
1.32458e-05
1.41299e-07
1.32499e-05
1.36819e-07
1.32531e-05
1.2586e-07
1.32573e-05
1.18082e-07
1.13691e-07
1.32626e-05
1.38807e-05
2.52618e-08
1.38863e-05
6.51971e-08
1.38843e-05
6.9549e-08
1.38749e-05
4.06365e-08
1.38751e-05
7.17881e-08
1.38786e-05
1.07828e-07
1.38785e-05
1.15429e-07
1.3879e-05
1.21713e-07
1.38765e-05
1.12223e-07
1.3871e-05
9.7073e-08
1.38695e-05
1.07049e-07
1.38708e-05
1.26901e-07
1.387e-05
1.27808e-07
1.38702e-05
1.23582e-07
1.38744e-05
1.28962e-07
1.38802e-05
1.35455e-07
1.38847e-05
1.32288e-07
1.38881e-05
1.22541e-07
1.38919e-05
1.14224e-07
1.08959e-07
1.38966e-05
1.4544e-05
2.49249e-08
1.45482e-05
6.10146e-08
1.45475e-05
7.02441e-08
1.45388e-05
4.92876e-08
1.45378e-05
7.28751e-08
1.45413e-05
1.04231e-07
1.4542e-05
1.14757e-07
1.45421e-05
1.21636e-07
1.45398e-05
1.14488e-07
1.45351e-05
1.01844e-07
1.45337e-05
1.08417e-07
1.45352e-05
1.25347e-07
1.45354e-05
1.27642e-07
1.45358e-05
1.23153e-07
1.45395e-05
1.25314e-07
1.4545e-05
1.29941e-07
1.45498e-05
1.27507e-07
1.45533e-05
1.19e-07
1.4557e-05
1.10535e-07
1.0469e-07
1.45613e-05
1.52392e-05
2.46346e-08
1.52423e-05
5.78627e-08
1.52424e-05
7.01718e-08
1.52349e-05
5.68293e-08
1.52326e-05
7.51179e-08
1.52356e-05
1.01209e-07
1.5237e-05
1.1338e-07
1.52372e-05
1.21474e-07
1.52351e-05
1.16552e-07
1.5231e-05
1.05954e-07
1.52297e-05
1.09677e-07
1.52315e-05
1.23624e-07
1.52325e-05
1.26637e-07
1.52332e-05
1.22368e-07
1.52365e-05
1.22055e-07
1.52417e-05
1.24784e-07
1.52465e-05
1.22638e-07
1.52503e-05
1.15225e-07
1.52539e-05
1.06898e-07
1.00734e-07
1.52579e-05
1.59676e-05
2.43295e-08
1.59699e-05
5.55854e-08
1.59704e-05
6.96632e-08
1.59642e-05
6.30334e-08
1.59612e-05
7.81367e-08
1.59632e-05
9.9178e-08
1.5965e-05
1.1158e-07
1.59656e-05
1.20945e-07
1.59638e-05
1.18291e-07
1.59603e-05
1.09463e-07
1.59592e-05
1.10815e-07
1.5961e-05
1.2181e-07
1.59627e-05
1.24944e-07
1.59639e-05
1.21137e-07
1.59669e-05
1.19077e-07
1.59717e-05
1.19974e-07
1.59766e-05
1.17788e-07
1.59805e-05
1.11274e-07
1.59842e-05
1.03228e-07
9.69551e-08
1.59879e-05
1.67309e-05
2.40053e-08
1.67323e-05
5.42177e-08
1.6733e-05
6.89522e-08
1.67283e-05
6.77326e-08
1.6725e-05
8.14468e-08
1.67259e-05
9.82397e-08
1.67278e-05
1.09753e-07
1.67287e-05
1.19981e-07
1.67275e-05
1.19497e-07
1.67246e-05
1.12389e-07
1.67236e-05
1.11833e-07
1.67255e-05
1.1993e-07
1.67276e-05
1.22774e-07
1.67294e-05
1.19398e-07
1.67322e-05
1.1622e-07
1.67367e-05
1.15515e-07
1.67415e-05
1.1299e-07
1.67455e-05
1.07233e-07
1.67492e-05
9.95082e-08
9.32521e-08
1.67529e-05
1.75307e-05
2.3679e-08
1.75316e-05
5.33391e-08
1.7532e-05
6.84745e-08
1.75286e-05
7.11355e-08
1.75255e-05
8.45798e-08
1.75255e-05
9.82435e-08
1.7527e-05
1.08264e-07
1.75283e-05
1.18672e-07
1.75278e-05
1.20021e-07
1.75255e-05
1.14676e-07
1.75246e-05
1.12689e-07
1.75265e-05
1.18063e-07
1.7529e-05
1.20263e-07
1.75312e-05
1.17209e-07
1.75341e-05
1.13307e-07
1.75383e-05
1.11373e-07
1.75429e-05
1.08299e-07
1.75471e-05
1.03118e-07
1.75508e-05
9.5787e-08
8.9545e-08
1.75545e-05
1.83686e-05
2.33837e-08
1.83692e-05
5.28117e-08
1.83693e-05
6.83371e-08
1.83669e-05
7.35241e-08
1.83643e-05
8.71752e-08
1.83637e-05
9.89049e-08
1.83646e-05
1.07337e-07
1.83661e-05
1.17176e-07
1.83662e-05
1.19893e-07
1.83647e-05
1.16224e-07
1.83641e-05
1.13277e-07
1.83659e-05
1.16284e-07
1.83686e-05
1.17496e-07
1.83712e-05
1.14664e-07
1.83742e-05
1.10271e-07
1.83782e-05
1.07412e-07
1.83827e-05
1.03788e-07
1.83869e-05
9.8906e-08
1.83906e-05
9.2082e-08
8.58298e-08
1.83943e-05
1.92466e-05
2.31462e-08
1.9247e-05
5.24597e-08
1.92467e-05
6.85757e-08
1.9245e-05
7.52461e-08
1.92431e-05
8.90844e-08
1.92421e-05
9.98838e-08
1.92425e-05
1.06966e-07
1.9244e-05
1.15707e-07
1.92446e-05
1.19225e-07
1.92439e-05
1.16983e-07
1.92436e-05
1.13528e-07
1.92454e-05
1.1455e-07
1.92483e-05
1.14605e-07
1.92511e-05
1.1179e-07
1.92543e-05
1.07135e-07
1.92582e-05
1.03509e-07
1.92625e-05