/*--------------------------------*- C++ -*----------------------------------*\
| =========                 |                                                 |
| \\      /  F ield         | OpenFOAM: The Open Source CFD Toolbox           |
|  \\    /   O peration     | Version:  3.0.1                                 |
|   \\  /    A nd           | Web:      www.OpenFOAM.org                      |
|    \\/     M anipulation  |                                                 |
\*---------------------------------------------------------------------------*/
FoamFile
{
    version     2.0;
    format      ascii;
    class       volVectorField;
    location    "3.1";
    object      U;
}
// * * * * * * * * * * * * * * * * * * * * * * * * * * * * * * * * * * * * * //

dimensions      [0 1 -1 0 0 0 0];

internalField   nonuniform List<vector> 
9600
(
(0.868114 0.00387402 0)
(1.16087 0.000794473 0)
(0.847003 0.00121833 0)
(1.06403 -0.0123117 0)
(0.915203 0.00821002 0)
(1.18496 0.00151561 0)
(0.757131 0.00807034 0)
(1.13693 0.00958257 0)
(0.825702 -0.0071164 0)
(1.0628 -0.00590705 0)
(0.902624 -0.00543674 0)
(1.07724 -0.00850604 0)
(0.88637 0.00575166 0)
(1.09967 -0.00790636 0)
(0.866536 0.0142155 0)
(1.10938 0.00538144 0)
(0.830027 0.0189421 0)
(1.09882 0.0111064 0)
(0.794674 0.0134932 0)
(1.07961 0.0131141 0)
(0.874649 0.00360069 0)
(1.14959 0.00122239 0)
(0.859094 0.00193133 0)
(1.05278 -0.0127151 0)
(0.917938 0.00670032 0)
(1.17222 0.00379169 0)
(0.775032 0.00859474 0)
(1.11239 0.00911101 0)
(0.858099 -0.00632753 0)
(1.04457 -0.00682364 0)
(0.92202 -0.00601554 0)
(1.0594 -0.007983 0)
(0.908131 0.00501188 0)
(1.07331 -0.00707098 0)
(0.895088 0.0135605 0)
(1.06768 0.00652357 0)
(0.883132 0.018992 0)
(1.02686 0.0116025 0)
(0.891525 0.0153486 0)
(0.959917 0.0112001 0)
(0.887982 0.00336422 0)
(1.12899 0.00146794 0)
(0.881729 0.00246827 0)
(1.03673 -0.0130886 0)
(0.924741 0.00548835 0)
(1.14832 0.00517784 0)
(0.812638 0.00889966 0)
(1.07159 0.00839691 0)
(0.902314 -0.00579372 0)
(1.0177 -0.00757731 0)
(0.94842 -0.00625747 0)
(1.03303 -0.00765241 0)
(0.94085 0.0045542 0)
(1.03847 -0.00666707 0)
(0.935691 0.0132981 0)
(1.02375 0.00712681 0)
(0.935897 0.019545 0)
(0.981141 0.0119857 0)
(0.941376 0.01639 0)
(0.940235 0.0116049 0)
(0.906375 0.00321118 0)
(1.10256 0.00160995 0)
(0.911054 0.00300426 0)
(1.02054 -0.0132714 0)
(0.934821 0.00450756 0)
(1.11745 0.00619655 0)
(0.861089 0.00953416 0)
(1.03023 0.00757857 0)
(0.943312 -0.00538242 0)
(0.995536 -0.00803925 0)
(0.969537 -0.00646449 0)
(1.01208 -0.00754968 0)
(0.967193 0.00441459 0)
(1.01267 -0.00650822 0)
(0.963819 0.0135531 0)
(1.00014 0.0072978 0)
(0.963029 0.0204082 0)
(0.971074 0.0121954 0)
(0.956835 0.0169454 0)
(0.950797 0.0127072 0)
(0.926966 0.00312439 0)
(1.07473 0.00165087 0)
(0.941298 0.00351275 0)
(1.00813 -0.0132961 0)
(0.945975 0.00362165 0)
(1.08535 0.00683901 0)
(0.90833 0.0104221 0)
(1.00163 0.00680638 0)
(0.972243 -0.00513329 0)
(0.985132 -0.00829136 0)
(0.981456 -0.00671214 0)
(1.0017 -0.00752567 0)
(0.982179 0.0043755 0)
(0.999882 -0.00628831 0)
(0.975717 0.0137263 0)
(0.990147 0.00752359 0)
(0.971811 0.0209279 0)
(0.971316 0.0125295 0)
(0.962237 0.0173969 0)
(0.958551 0.013558 0)
(0.946724 0.00309181 0)
(1.04984 0.00159784 0)
(0.96723 0.00393045 0)
(1.00123 -0.0131852 0)
(0.955949 0.00291264 0)
(1.0573 0.00711671 0)
(0.945919 0.011288 0)
(0.989798 0.00621339 0)
(0.989268 -0.00505164 0)
(0.984409 -0.00836771 0)
(0.987367 -0.00692264 0)
(0.998379 -0.00755204 0)
(0.989169 0.0043581 0)
(0.99592 -0.00595774 0)
(0.978361 0.0137921 0)
(0.985064 0.00789034 0)
(0.972677 0.021059 0)
(0.971761 0.0130719 0)
(0.965452 0.0175273 0)
(0.963562 0.014201 0)
(0.963386 0.0030991 0)
(1.03073 0.0014784 0)
(0.986097 0.00422782 0)
(0.99916 -0.0129513 0)
(0.963716 0.00241646 0)
(1.036 0.00710312 0)
(0.971379 0.0119728 0)
(0.99014 0.00583252 0)
(0.998759 -0.00504535 0)
(0.98793 -0.00831838 0)
(0.990823 -0.0070645 0)
(0.997594 -0.00759582 0)
(0.991873 0.00434791 0)
(0.995642 -0.00554406 0)
(0.978235 0.0139265 0)
(0.982195 0.00830433 0)
(0.972091 0.0210426 0)
(0.972494 0.0136216 0)
(0.968998 0.0173249 0)
(0.968796 0.0147847 0)
(0.975978 0.00312565 0)
(1.01796 0.00132699 0)
(0.99784 0.00440963 0)
(0.999822 -0.0126282 0)
(0.969665 0.00209619 0)
(1.02139 0.00689354 0)
(0.986485 0.0124257 0)
(0.995658 0.00560719 0)
(1.00445 -0.00502826 0)
(0.991946 -0.00819472 0)
(0.993267 -0.00712581 0)
(0.997089 -0.00761378 0)
(0.992409 0.00431885 0)
(0.995738 -0.00507842 0)
(0.978372 0.014115 0)
(0.981327 0.00875194 0)
(0.97309 0.020917 0)
(0.97483 0.0140888 0)
(0.973847 0.0169249 0)
(0.975001 0.0153173 0)
(0.984704 0.00315355 0)
(1.01035 0.00117259 0)
(1.00407 0.00449952 0)
(1.00121 -0.0122618 0)
(0.974726 0.00191011 0)
(1.01188 0.00658447 0)
(0.994504 0.0126619 0)
(1.00154 0.00545978 0)
(1.00813 -0.0049692 0)
(0.995118 -0.00802171 0)
(0.995054 -0.00710521 0)
(0.996324 -0.00758677 0)
(0.991968 0.00427046 0)
(0.995048 -0.00460074 0)
(0.97938 0.0142731 0)
(0.982187 0.00922499 0)
(0.976233 0.0206376 0)
(0.978918 0.0144956 0)
(0.979805 0.0163934 0)
(0.981709 0.015751 0)
(0.990414 0.00317311 0)
(1.00612 0.00103208 0)
(1.0068 0.00452597 0)
(1.00221 -0.0118906 0)
(0.979466 0.00182492 0)
(1.00579 0.00624625 0)
(0.998368 0.0127259 0)
(1.00589 0.00534455 0)
(1.01042 -0.0048716 0)
(0.997327 -0.00781165 0)
(0.996396 -0.00701453 0)
(0.995463 -0.00751142 0)
(0.991282 0.00421854 0)
(0.993733 -0.00413725 0)
(0.980974 0.0143349 0)
(0.984138 0.00968308 0)
(0.980728 0.0201924 0)
(0.983983 0.0148721 0)
(0.986062 0.0157695 0)
(0.988149 0.0160755 0)
(0.994049 0.00318186 0)
(1.00378 0.000911291 0)
(1.00767 0.00451415 0)
(1.00262 -0.011538 0)
(0.983869 0.00181039 0)
(1.00188 0.00591961 0)
(1.00006 0.0126656 0)
(1.00855 0.00524125 0)
(1.01163 -0.0047484 0)
(0.998762 -0.00757688 0)
(0.997476 -0.00687126 0)
(0.994776 -0.00738685 0)
(0.990758 0.00416836 0)
(0.992325 -0.00369517 0)
(0.982768 0.0142568 0)
(0.986506 0.0100968 0)
(0.985476 0.019586 0)
(0.989008 0.0152309 0)
(0.991753 0.0151232 0)
(0.993672 0.0163006 0)
(0.996339 0.00318076 0)
(1.00245 0.000810459 0)
(1.00775 0.00448093 0)
(1.0026 -0.0112133 0)
(0.987633 0.00184054 0)
(0.999417 0.00562459 0)
(1.00069 0.0125207 0)
(1.00996 0.00513938 0)
(1.01211 -0.00461113 0)
(0.999619 -0.00732701 0)
(0.998363 -0.00668758 0)
(0.9944 -0.00721958 0)
(0.990531 0.00412023 0)
(0.99122 -0.00327057 0)
(0.984487 0.0140276 0)
(0.988785 0.0104587 0)
(0.98965 0.0188479 0)
(0.99323 0.0155639 0)
(0.996309 0.0145261 0)
(0.997924 0.0164248 0)
(0.997759 0.00317169 0)
(1.00166 0.000726885 0)
(1.00758 0.00443503 0)
(1.00239 -0.0109147 0)
(0.990526 0.00189621 0)
(0.997929 0.00536683 0)
(1.00087 0.0123174 0)
(1.01059 0.00503931 0)
(1.01218 -0.00446905 0)
(1.00007 -0.00706662 0)
(0.999053 -0.00647954 0)
(0.994315 -0.0070187 0)
(0.990564 0.00407233 0)
(0.990568 -0.00285141 0)
(0.98598 0.0136592 0)
(0.99068 0.010781 0)
(0.992862 0.0180274 0)
(0.99631 0.0158586 0)
(0.999548 0.0140227 0)
(1.00087 0.0164233 0)
(0.998607 0.00315635 0)
(1.00122 0.000656083 0)
(1.0074 0.00438065 0)
(1.00213 -0.0106337 0)
(0.992527 0.00196331 0)
(0.997112 0.00514273 0)
(1.00089 0.0120716 0)
(1.01079 0.00494547 0)
(1.01205 -0.00432907 0)
(1.00025 -0.00679498 0)
(0.999539 -0.00626857 0)
(0.994429 -0.0067852 0)
(0.990751 0.00401695 0)
(0.990323 -0.00242462 0)
(0.987196 0.013172 0)
(0.992085 0.0110811 0)
(0.995083 0.0171759 0)
(0.998273 0.0160893 0)
(1.0016 0.0136419 0)
(1.0027 0.0162909 0)
(0.999085 0.00313589 0)
(1.00099 0.000593928 0)
(1.00728 0.00432019 0)
(1.00187 -0.01036 0)
(0.993785 0.00203121 0)
(0.996734 0.00494475 0)
(1.00091 0.0117938 0)
(1.01075 0.00486102 0)
(1.01186 -0.00419615 0)
(1.00028 -0.00650993 0)
(0.999846 -0.0060598 0)
(0.994648 -0.0065259 0)
(0.990997 0.003951 0)
(0.990356 -0.00198471 0)
(0.988155 0.0126043 0)
(0.993026 0.0113562 0)
(0.996491 0.0163339 0)
(0.999351 0.0162369 0)
(1.00276 0.0133957 0)
(1.00373 0.0160378 0)
(0.999335 0.00311097 0)
(1.00088 0.000537923 0)
(1.00721 0.00425447 0)
(1.00165 -0.0100839 0)
(0.99452 0.0020919 0)
(0.996625 0.00476654 0)
(1.00097 0.0114889 0)
(1.01058 0.00478971 0)
(1.01166 -0.0040718 0)
(1.00023 -0.00620909 0)
(1.00002 -0.00585401 0)
(0.994909 -0.00624972 0)
(0.991247 0.00387171 0)
(0.990543 -0.0015326 0)
(0.988916 0.0119925 0)
(0.993606 0.0116011 0)
(0.997329 0.0155328 0)
(0.999833 0.0162915 0)
(1.00332 0.0132749 0)
(1.00424 0.0156899 0)
(0.999458 0.00308189 0)
(1.00084 0.000486711 0)
(1.00716 0.00418277 0)
(1.00147 -0.00979815 0)
(0.994939 0.00214073 0)
(0.996665 0.00460245 0)
(1.00108 0.0111617 0)
(1.01036 0.00472995 0)
(1.01147 -0.00395764 0)
(1.00016 -0.00588945 0)
(1.0001 -0.00565608 0)
(0.995182 -0.00595851 0)
(0.991481 0.0037782 0)
(0.990806 -0.00106453 0)
(0.989552 0.0113604 0)
(0.993949 0.0118087 0)
(0.99782 0.0148008 0)
(0.999978 0.0162512 0)
(1.00352 0.013251 0)
(1.00449 0.0152817 0)
(0.999515 0.00304879 0)
(1.00083 0.000440072 0)
(1.0071 0.0041038 0)
(1.00134 -0.00949806 0)
(0.995201 0.00217506 0)
(0.996782 0.00445071 0)
(1.00119 0.0108114 0)
(1.01009 0.00468565 0)
(1.01126 -0.00385687 0)
(1.00009 -0.00554954 0)
(1.00013 -0.00546557 0)
(0.99546 -0.00565467 0)
(0.991698 0.00367573 0)
(0.991103 -0.000587046 0)
(0.990125 0.0107395 0)
(0.994172 0.0119608 0)
(0.99813 0.0141512 0)
(0.999975 0.0161231 0)
(1.00354 0.0132874 0)
(1.0046 0.0148335 0)
(0.999535 0.0030115 0)
(1.00085 0.000398831 0)
(1.007 0.00401645 0)
(1.00127 -0.00918119 0)
(0.995402 0.00219188 0)
(0.99694 0.00431341 0)
(1.00129 0.0104373 0)
(1.00981 0.00466075 0)
(1.01104 -0.00376813 0)
(1.00004 -0.00519432 0)
(1.00014 -0.00526963 0)
(0.995747 -0.00535276 0)
(0.991901 0.00357092 0)
(0.991418 -0.000114603 0)
(0.990673 0.0101519 0)
(0.994352 0.0120583 0)
(0.998359 0.0135791 0)
(0.999941 0.0159089 0)
(1.00347 0.013351 0)
(1.00468 0.0143679 0)
(0.99953 0.00296974 0)
(1.0009 0.000363683 0)
(1.00685 0.00391853 0)
(1.00124 -0.00884612 0)
(0.995587 0.00218998 0)
(0.997125 0.00419099 0)
(1.00134 0.0100418 0)
(1.00952 0.00465231 0)
(1.0108 -0.00369323 0)
(1.00001 -0.00482375 0)
(1.00012 -0.00507078 0)
(0.996051 -0.00505216 0)
(0.992092 0.00347432 0)
(0.99174 0.000343819 0)
(0.991215 0.00959355 0)
(0.994537 0.0121115 0)
(0.998554 0.01308 0)
(0.999931 0.0156196 0)
(1.00335 0.0134248 0)
(1.00476 0.0139131 0)
(0.9995 0.00292305 0)
(1.00097 0.000336359 0)
(1.00665 0.00380857 0)
(1.00125 -0.00849348 0)
(0.99577 0.00216982 0)
(0.997334 0.00408446 0)
(1.00135 0.00962471 0)
(1.00922 0.00465945 0)
(1.01052 -0.00362997 0)
(0.999995 -0.00444388 0)
(1.00009 -0.00486601 0)
(0.996377 -0.00476224 0)
(0.992274 0.00339525 0)
(0.992063 0.000771971 0)
(0.991754 0.00907421 0)
(0.994745 0.0121181 0)
(0.998732 0.0126356 0)
(0.999969 0.0152744 0)
(1.00322 0.0135102 0)
(1.00483 0.0134896 0)
(0.999447 0.00287113 0)
(1.00107 0.0003192 0)
(1.00641 0.00368563 0)
(1.00129 -0.00812294 0)
(0.995947 0.00212904 0)
(0.997562 0.00399788 0)
(1.00132 0.00918562 0)
(1.00892 0.00468418 0)
(1.01022 -0.00357361 0)
(0.999994 -0.00406468 0)
(1.00004 -0.00463835 0)
(0.996723 -0.00449357 0)
(0.992448 0.00333811 0)
(0.992379 0.00116592 0)
(0.992288 0.0085949 0)
(0.994975 0.0120855 0)
(0.998894 0.0122356 0)
(1.00006 0.0148801 0)
(1.00307 0.0135976 0)
(1.0049 0.0131061 0)
(0.999376 0.00281356 0)
(1.00118 0.000312245 0)
(1.00614 0.00354796 0)
(1.00134 -0.00773286 0)
(0.996116 0.00206592 0)
(0.997801 0.00393108 0)
(1.00126 0.0087289 0)
(1.00862 0.00471987 0)
(1.0099 -0.00352258 0)
(1 -0.00368587 0)
(0.999969 -0.00438356 0)
(0.997085 -0.00424842 0)
(0.992619 0.00329741 0)
(0.992681 0.00154089 0)
(0.992815 0.00814064 0)
(0.995223 0.012021 0)
(0.999039 0.0118908 0)
(1.00019 0.0144328 0)
(1.00291 0.0136682 0)
(1.00494 0.0127733 0)
(0.9993 0.00275032 0)
(1.00129 0.000314746 0)
(1.00586 0.00339607 0)
(1.00139 -0.00732455 0)
(0.996279 0.00198194 0)
(0.998038 0.00388125 0)
(1.00119 0.00825948 0)
(1.00831 0.00476019 0)
(1.00957 -0.00347008 0)
(1.00001 -0.00331955 0)
(0.999888 -0.00409673 0)
(0.997455 -0.00403802 0)
(0.992799 0.00327421 0)
(0.992964 0.00190315 0)
(0.993336 0.00771185 0)
(0.995484 0.0119251 0)
(0.999161 0.0116078 0)
(1.00035 0.0139291 0)
(1.00276 0.0137063 0)
(1.00495 0.0125133 0)
(0.999231 0.00268051 0)
(1.00139 0.000330958 0)
(1.00559 0.0032277 0)
(1.00143 -0.00689918 0)
(0.996444 0.00187956 0)
(0.998263 0.00384858 0)
(1.00112 0.00777785 0)
(1.00799 0.00480367 0)
(1.00924 -0.00340925 0)
(1.00003 -0.00297963 0)
(0.999799 -0.00377072 0)
(0.997828 -0.00384641 0)
(0.992997 0.00326503 0)
(0.993221 0.00225744 0)
(0.993854 0.00730103 0)
(0.995757 0.0117943 0)
(0.999259 0.0113924 0)
(1.00054 0.0133772 0)
(1.00262 0.0136859 0)
(1.0049 0.0123397 0)
(0.999181 0.00260449 0)
(1.00147 0.000360392 0)
(1.00533 0.00304294 0)
(1.00146 -0.00645711 0)
(0.996622 0.00175748 0)
(0.998467 0.00383172 0)
(1.00106 0.00729355 0)
(1.00765 0.00484047 0)
(1.00891 -0.00333147 0)
(1.00004 -0.00266983 0)
(0.999707 -0.00340053 0)
(0.998196 -0.003666 0)
(0.993223 0.00325236 0)
(0.993451 0.00261695 0)
(0.99437 0.00690415 0)
(0.996043 0.0116242 0)
(0.999334 0.0112461 0)
(1.00075 0.0127992 0)
(1.00252 0.0135785 0)
(1.00481 0.0122555 0)
(0.999155 0.00252248 0)
(1.00152 0.000402732 0)
(1.00509 0.0028423 0)
(1.00148 -0.0060012 0)
(0.996819 0.00161943 0)
(0.998649 0.0038255 0)
(1.00101 0.00681077 0)
(1.0073 0.0048682 0)
(1.00859 -0.003229 0)
(1.00006 -0.00239672 0)
(0.999616 -0.00300365 0)
(0.998556 -0.00349004 0)
(0.993488 0.00322363 0)
(0.993653 0.00298243 0)
(0.994883 0.00653256 0)
(0.99635 0.0114033 0)
(0.999387 0.0111601 0)
(1.00095 0.0122316 0)
(1.00246 0.0133635 0)
(1.00467 0.0122591 0)
(0.999153 0.00243336 0)
(1.00154 0.000459579 0)
(1.00487 0.00262655 0)
(1.00148 -0.00553377 0)
(0.997035 0.00146675 0)
(0.99881 0.00382916 0)
(1.00098 0.00633176 0)
(1.00694 0.00487419 0)
(1.00828 -0.0030923 0)
(1.00008 -0.0021679 0)
(0.999529 -0.0025812 0)
(0.998903 -0.00331373 0)
(0.993796 0.00317417 0)
(0.993834 0.00335248 0)
(0.995388 0.00619182 0)
(0.996682 0.0111209 0)
(0.999422 0.0111257 0)
(1.00114 0.0117109 0)
(1.00247 0.013019 0)
(1.0045 0.0123059 0)
(0.999172 0.00233813 0)
(1.00155 0.000529531 0)
(1.00467 0.00239745 0)
(1.00147 -0.00505827 0)
(0.997268 0.00130661 0)
(0.998956 0.00383217 0)
(1.00097 0.00587292 0)
(1.00657 0.00484481 0)
(1.00798 -0.00291709 0)
(1.00011 -0.00197423 0)
(0.999443 -0.0021351 0)
(0.999231 -0.00312683 0)
(0.99415 0.00309899 0)
(0.993998 0.00372912 0)
(0.995877 0.00590101 0)
(0.997048 0.0107705 0)
(0.999449 0.0111198 0)
(1.0013 0.0112723 0)
(1.00254 0.0125618 0)
(1.00432 0.0123253 0)
(0.999204 0.00223646 0)
(1.00154 0.000613522 0)
(1.00448 0.00215698 0)
(1.00144 -0.00458033 0)
(0.99751 0.00114339 0)
(0.999091 0.00382883 0)
(1.00097 0.00544542 0)
(1.00622 0.00477344 0)
(1.00768 -0.00270381 0)
(1.00014 -0.00180724 0)
(0.999358 -0.00168635 0)
(0.999537 -0.00291391 0)
(0.994548 0.0029968 0)
(0.994157 0.00409757 0)
(0.99634 0.00567745 0)
(0.997448 0.0103582 0)
(0.999478 0.0111129 0)
(1.00142 0.0109329 0)
(1.00266 0.0120333 0)
(1.00417 0.0122472 0)
(0.999243 0.0021286 0)
(1.00152 0.000708905 0)
(1.00429 0.00190804 0)
(1.00141 -0.0041013 0)
(0.997754 0.000982405 0)
(0.999222 0.00381298 0)
(1.00097 0.00505846 0)
(1.00586 0.00466028 0)
(1.00738 -0.00246158 0)
(1.00019 -0.00166841 0)
(0.999274 -0.00124532 0)
(0.999816 -0.00266528 0)
(0.994983 0.00287969 0)
(0.994319 0.00444928 0)
(0.996768 0.00552145 0)
(0.997881 0.0098947 0)
(0.999522 0.0110751 0)
(1.00149 0.010688 0)
(1.00281 0.0114852 0)
(1.00409 0.0120247 0)
(0.999286 0.00201522 0)
(1.00148 0.000814576 0)
(1.00412 0.00165334 0)
(1.00137 -0.00362811 0)
(0.997993 0.000831677 0)
(0.999348 0.00377177 0)
(1.00097 0.00471991 0)
(1.00551 0.00451202 0)
(1.00708 -0.00219872 0)
(1.00024 -0.00154226 0)
(0.999193 -0.000814882 0)
(1.00007 -0.00238097 0)
(0.995451 0.00274471 0)
(0.994491 0.00478121 0)
(0.997153 0.00543557 0)
(0.99834 0.00939698 0)
(0.999594 0.010986 0)
(1.00151 0.0105245 0)
(1.00295 0.0109808 0)
(1.00407 0.0116666 0)
(0.99933 0.00189775 0)
(1.00145 0.000925574 0)
(1.00395 0.00140052 0)
(1.00132 -0.0031733 0)
(0.998224 0.000697834 0)
(0.999473 0.00369702 0)
(1.00098 0.00443236 0)
(1.00518 0.00433104 0)
(1.00678 -0.0019277 0)
(1.00031 -0.00141908 0)
(0.999118 -0.00040596 0)
(1.00029 -0.0020673 0)
(0.995945 0.00259465 0)
(0.994678 0.00507499 0)
(0.99749 0.00541831 0)
(0.998818 0.00888652 0)
(0.999704 0.010835 0)
(1.00149 0.0104163 0)
(1.00307 0.0105524 0)
(1.00412 0.0112175 0)
(0.999373 0.00177546 0)
(1.0014 0.00104505 0)
(1.00378 0.00115192 0)
(1.00128 -0.00274335 0)
(0.998443 0.000596761 0)
(0.999594 0.00358524 0)
(1.00098 0.0041906 0)
(1.00485 0.00412668 0)
(1.00648 -0.00166276 0)
(1.00038 -0.00129403 0)
(0.99905 -2.66966e-05 0)
(1.00047 -0.00172062 0)
(0.996459 0.00244481 0)
(0.994889 0.0053228 0)
(0.997776 0.00546885 0)
(0.9993 0.00837439 0)
(0.999862 0.0106107 0)
(1.00144 0.0103365 0)
(1.00314 0.0102084 0)
(1.00421 0.0107457 0)
(0.999416 0.00165102 0)
(1.00134 0.00116532 0)
(1.00362 0.000920315 0)
(1.00124 -0.00234976 0)
(0.99865 0.000529846 0)
(0.999714 0.00343467 0)
(1.00098 0.00398067 0)
(1.00453 0.00392114 0)
(1.00618 -0.00139894 0)
(1.00046 -0.0011612 0)
(0.998994 0.000329864 0)
(1.00063 -0.00134699 0)
(0.996989 0.00229466 0)
(0.995127 0.00551703 0)
(0.998008 0.00558347 0)
(0.999775 0.00788247 0)
(1.00007 0.0103165 0)
(1.00138 0.0102665 0)
(1.00317 0.00992912 0)
(1.00431 0.0102973 0)
(0.999458 0.00152457 0)
(1.00128 0.00128478 0)
(1.00345 0.000714837 0)
(1.0012 -0.00200394 0)
(0.998843 0.00049792 0)
(0.999831 0.00325026 0)
(1.00097 0.00379044 0)
(1.00421 0.00372608 0)
(1.00588 -0.00114662 0)
(1.00055 -0.00102504 0)
(0.998951 0.00065882 0)
(1.00075 -0.000949129 0)
(0.997528 0.00216269 0)
(0.995402 0.00565944 0)
(0.998189 0.00574798 0)
(1.00023 0.00743163 0)
(1.00034 0.00994834 0)
(1.00132 0.0101922 0)
(1.00314 0.00969448 0)
(1.0044 0.00988437 0)
(0.9995 0.00139888 0)
(1.0012 0.00139669 0)
(1.00329 0.000549358 0)
(1.00116 -0.00171561 0)
(0.99902 0.000491894 0)
(0.999946 0.00305388 0)
(1.00096 0.0036094 0)
(1.00391 0.00353501 0)
(1.00558 -0.000907253 0)
(1.00065 -0.000883464 0)
(0.998924 0.00096528 0)
(1.00084 -0.000525051 0)
(0.998069 0.00205276 0)
(0.995718 0.00574088 0)
(0.99832 0.00594575 0)
(1.00064 0.00704381 0)
(1.00066 0.00950634 0)
(1.00128 0.0101042 0)
(1.00307 0.00951608 0)
(1.00447 0.00951383 0)
(0.99954 0.00127591 0)
(1.00112 0.00149495 0)
(1.00312 0.000430741 0)
(1.00112 -0.00147589 0)
(0.999185 0.000501933 0)
(1.00006 0.00284944 0)
(1.00095 0.00343709 0)
(1.00361 0.0033625 0)
(1.00529 -0.000677157 0)
(1.00076 -0.000729302 0)
(0.998915 0.00125201 0)
(1.0009 -9.71299e-05 0)
(0.998601 0.00195538 0)
(0.996081 0.00574343 0)
(0.998416 0.00615516 0)
(1.00099 0.00673534 0)
(1.00103 0.00899577 0)
(1.00128 0.00996715 0)
(1.00295 0.00939338 0)
(1.0045 0.00917815 0)
(0.99958 0.00115477 0)
(1.00104 0.00158155 0)
(1.00295 0.000349511 0)
(1.00108 -0.00127405 0)
(0.999336 0.000523477 0)
(1.00016 0.0026392 0)
(1.00093 0.00327632 0)
(1.00333 0.00322911 0)
(1.00501 -0.000449974 0)
(1.00087 -0.000572635 0)
(0.998927 0.00150737 0)
(1.00092 0.000326237 0)
(0.999113 0.00188218 0)
(0.996492 0.00566644 0)
(0.998488 0.00635092 0)
(1.00128 0.00651865 0)
(1.00143 0.00844742 0)
(1.00134 0.00974851 0)
(1.0028 0.00931775 0)
(1.00448 0.00889015 0)
(0.999619 0.00103801 0)
(1.00095 0.00165013 0)
(1.00277 0.000298542 0)
(1.00104 -0.0011031 0)
(0.999472 0.000544917 0)
(1.00026 0.00243293 0)
(1.00092 0.00312372 0)
(1.00305 0.00313565 0)
(1.00473 -0.000214094 0)
(1.001 -0.000415665 0)
(0.998966 0.00173211 0)
(1.00091 0.000748475 0)
(0.999596 0.00183518 0)
(0.996949 0.00550461 0)
(0.998555 0.00649986 0)
(1.00148 0.00638969 0)
(1.00184 0.00790737 0)
(1.00147 0.00943402 0)
(1.00264 0.00925943 0)
(1.0044 0.00867596 0)
(0.999657 0.000924776 0)
(1.00086 0.00169445 0)
(1.0026 0.00027593 0)
(1.00101 -0.00094911 0)
(0.999595 0.00057479 0)
(1.00035 0.00222072 0)
(1.00092 0.00298783 0)
(1.00279 0.00307705 0)
(1.00445 2.06124e-05 0)
(1.00113 -0.000256129 0)
(0.999031 0.0019242 0)
(1.00088 0.0011689 0)
(1.00004 0.00183521 0)
(0.997447 0.00528301 0)
(0.998638 0.00658711 0)
(1.0016 0.00633381 0)
(1.00224 0.00741681 0)
(1.00169 0.00903357 0)
(1.00251 0.00917173 0)
(1.00426 0.00853854 0)
(0.999693 0.000825791 0)
(1.00077 0.00169938 0)
(1.00242 0.00028238 0)
(1.00098 -0.000815319 0)
(0.999702 0.000636526 0)
(1.00044 0.00200003 0)
(1.00093 0.00282975 0)
(1.00254 0.00304362 0)
(1.00417 0.000283852 0)
(1.00126 -8.88571e-05 0)
(0.999128 0.00207586 0)
(1.00083 0.00157223 0)
(1.00043 0.00188579 0)
(0.997976 0.00502676 0)
(0.998753 0.00660535 0)
(1.00166 0.00632951 0)
(1.00259 0.00699919 0)
(1.00197 0.00857327 0)
(1.00242 0.00901828 0)
(1.00406 0.00845424 0)
(0.999728 0.000729699 0)
(1.00068 0.00168421 0)
(1.00224 0.000295055 0)
(1.00095 -0.000688914 0)
(0.999796 0.000682164 0)
(1.00052 0.00183699 0)
(1.00096 0.00262835 0)
(1.00232 0.00300039 0)
(1.0039 0.00058655 0)
(1.00139 0.00010254 0)
(0.999254 0.00220185 0)
(1.00078 0.00195686 0)
(1.00076 0.00199722 0)
(0.99852 0.00476436 0)
(0.998913 0.00655428 0)
(1.00168 0.00635563 0)
(1.00289 0.00666418 0)
(1.0023 0.00808787 0)
(1.0024 0.00878904 0)
(1.00385 0.00838553 0)
(0.999762 0.000637463 0)
(1.00059 0.0016554 0)
(1.00206 0.00030623 0)
(1.00092 -0.000587976 0)
(0.999884 0.000733494 0)
(1.00059 0.0017016 0)
(1.00099 0.00244763 0)
(1.00214 0.00298926 0)
(1.00363 0.000875089 0)
(1.00151 0.000290003 0)
(0.999406 0.00228896 0)
(1.00073 0.00230314 0)
(1.00104 0.0021611 0)
(0.999062 0.00451796 0)
(0.99912 0.0064341 0)
(1.00165 0.00639002 0)
(1.00312 0.00641598 0)
(1.00266 0.00761101 0)
(1.00247 0.00849665 0)
(1.00365 0.00829967 0)
(0.999794 0.000563813 0)
(1.00051 0.00158743 0)
(1.00188 0.000338532 0)
(1.00089 -0.000493356 0)
(0.999963 0.000814017 0)
(1.00065 0.00162905 0)
(1.00105 0.00232056 0)
(1.00198 0.00295239 0)
(1.00337 0.00110277 0)
(1.00161 0.000445364 0)
(0.99958 0.00231197 0)
(1.00069 0.00258023 0)
(1.00126 0.00234175 0)
(0.99959 0.00429347 0)
(0.999382 0.00624614 0)
(1.00163 0.00639631 0)
(1.00328 0.00623743 0)
(1.00303 0.00715195 0)
(1.00263 0.00813751 0)
(1.0035 0.00815981 0)
(0.999824 0.000493076 0)
(1.00043 0.00150702 0)
(1.00171 0.000390397 0)
(1.00087 -0.000384797 0)
(1.00004 0.000906402 0)
(1.0007 0.00165089 0)
(1.0011 0.00218404 0)
(1.00184 0.00281718 0)
(1.00311 0.00130953 0)
(1.0017 0.000618876 0)
(0.999783 0.00231442 0)
(1.00067 0.00279758 0)
(1.00143 0.00252514 0)
(1.00009 0.00410263 0)
(0.999689 0.00601387 0)
(1.00161 0.00636386 0)
(1.00336 0.00612196 0)
(1.00337 0.00674609 0)
(1.00285 0.00773825 0)
(1.0034 0.00796977 0)
(0.999851 0.000432879 0)
(1.00036 0.00141926 0)
(1.00154 0.000448068 0)
(1.00085 -0.000286351 0)
(1.00012 0.000997375 0)
(1.00074 0.00166398 0)
(1.00114 0.00204132 0)
(1.00173 0.00268448 0)
(1.00288 0.00151599 0)
(1.00177 0.000816269 0)
(0.999997 0.00231465 0)
(1.00068 0.00296839 0)
(1.00157 0.00271948 0)
(1.00056 0.00396438 0)
(1.00003 0.00577069 0)
(1.00162 0.00629796 0)
(1.00339 0.00605669 0)
(1.00366 0.00642094 0)
(1.00313 0.00732743 0)
(1.00338 0.00773271 0)
(0.999877 0.000384226 0)
(1.00029 0.00131469 0)
(1.00138 0.000515607 0)
(1.00084 -0.000192321 0)
(1.0002 0.00103673 0)
(1.00077 0.00168367 0)
(1.00117 0.00195997 0)
(1.00165 0.00257248 0)
(1.00267 0.00167912 0)
(1.00183 0.0010179 0)
(1.00022 0.002323 0)
(1.00071 0.00310716 0)
(1.00167 0.00292221 0)
(1.00098 0.00387452 0)
(1.0004 0.0055208 0)
(1.00167 0.00618352 0)
(1.00339 0.00599995 0)
(1.00389 0.006163 0)
(1.00342 0.00691797 0)
(1.00344 0.00743676 0)
(0.999899 0.000342346 0)
(1.00024 0.00121084 0)
(1.00123 0.000581396 0)
(1.00083 -0.000108525 0)
(1.00029 0.00105662 0)
(1.00079 0.00172552 0)
(1.0012 0.00191961 0)
(1.00159 0.00246193 0)
(1.00249 0.00181126 0)
(1.00188 0.0012333 0)
(1.00045 0.00235249 0)
(1.00078 0.00320367 0)
(1.00175 0.00309125 0)
(1.00135 0.00380138 0)
(1.00078 0.00526014 0)
(1.00176 0.00601941 0)
(1.00336 0.00593483 0)
(1.00405 0.00596829 0)
(1.00372 0.00654942 0)
(1.00357 0.00710519 0)
(0.99992 0.000312756 0)
(1.0002 0.00110055 0)
(1.00109 0.000641408 0)
(1.00082 -1.77439e-05 0)
(1.00038 0.00106349 0)
(1.00082 0.0017616 0)
(1.00122 0.0019054 0)
(1.00155 0.0023721 0)
(1.00233 0.00192016 0)
(1.00192 0.00142754 0)
(1.00067 0.00237619 0)
(1.00086 0.00325879 0)
(1.00182 0.00322994 0)
(1.00167 0.00375454 0)
(1.00116 0.00502191 0)
(1.00189 0.00583093 0)
(1.00334 0.0058567 0)
(1.00416 0.00582152 0)
(1.00398 0.00623581 0)
(1.00375 0.00675986 0)
(0.999937 0.000289457 0)
(1.00016 0.00099179 0)
(1.00096 0.000699955 0)
(1.00081 8.94388e-05 0)
(1.00047 0.00105162 0)
(1.00085 0.00178016 0)
(1.00123 0.00191371 0)
(1.00152 0.00230617 0)
(1.0022 0.00200631 0)
(1.00195 0.0015983 0)
(1.00089 0.00239872 0)
(1.00097 0.00329458 0)
(1.00187 0.00335713 0)
(1.00195 0.00373372 0)
(1.00152 0.00480459 0)
(1.00206 0.00561917 0)
(1.00333 0.00574497 0)
(1.00422 0.00569378 0)
(1.00419 0.00597199 0)
(1.00395 0.00642665 0)
(0.999952 0.000274175 0)
(1.00014 0.000890313 0)
(1.00085 0.000748566 0)
(1.00079 0.000213906 0)
(1.00056 0.00103019 0)
(1.00089 0.00176946 0)
(1.00124 0.00192937 0)
(1.00149 0.00226111 0)
(1.0021 0.00207518 0)
(1.00198 0.00175656 0)
(1.0011 0.00242717 0)
(1.00111 0.00330474 0)
(1.00193 0.00345888 0)
(1.00218 0.00372955 0)
(1.00187 0.00460683 0)
(1.00226 0.0053961 0)
(1.00334 0.00560553 0)
(1.00426 0.0055718 0)
(1.00437 0.00575222 0)
(1.00416 0.00612114 0)
(0.999965 0.000265212 0)
(1.00012 0.00080143 0)
(1.00075 0.000788654 0)
(1.00078 0.000347188 0)
(1.00065 0.00101092 0)
(1.00094 0.0017273 0)
(1.00125 0.00193882 0)
(1.00147 0.00223697 0)
(1.00201 0.00213406 0)
(1.00201 0.00189964 0)
(1.0013 0.00246 0)
(1.00126 0.00329043 0)
(1.00199 0.00352439 0)
(1.00236 0.00373686 0)
(1.00218 0.00443809 0)
(1.00248 0.00517241 0)
(1.00339 0.00544678 0)
(1.00429 0.00544306 0)
(1.0045 0.00555983 0)
(1.00435 0.00584297 0)
(0.999976 0.000257903 0)
(1.00011 0.000732894 0)
(1.00068 0.000818767 0)
(1.00076 0.000476792 0)
(1.00073 0.00100341 0)
(1.00099 0.00166829 0)
(1.00127 0.00194033 0)
(1.00147 0.00223092 0)
(1.00194 0.00219215 0)
(1.00203 0.00202186 0)
(1.00149 0.00248718 0)
(1.00142 0.00326359 0)
(1.00205 0.00355905 0)
(1.00252 0.00374358 0)
(1.00246 0.004299 0)
(1.0027 0.00495419 0)
(1.00345 0.00527229 0)
(1.00431 0.00530633 0)
(1.0046 0.0053851 0)
(1.00452 0.00559847 0)
(0.999985 0.000253604 0)
(1.00011 0.000681566 0)
(1.00061 0.000832391 0)
(1.00073 0.000595801 0)
(1.00079 0.00101402 0)
(1.00105 0.00160892 0)
(1.00129 0.00192731 0)
(1.00147 0.00222934 0)
(1.00189 0.00224984 0)
(1.00205 0.00213298 0)
(1.00166 0.00251058 0)
(1.00159 0.00322562 0)
(1.00213 0.00357119 0)
(1.00264 0.00374228 0)
(1.0027 0.00418121 0)
(1.00293 0.00474961 0)
(1.00354 0.0050825 0)
(1.00433 0.0051581 0)
(1.00467 0.00521563 0)
(1.00465 0.00538024 0)
(0.999992 0.000250429 0)
(1.00011 0.000642723 0)
(1.00056 0.000833141 0)
(1.00072 0.000700795 0)
(1.00084 0.00104518 0)
(1.00111 0.00155964 0)
(1.00133 0.00189927 0)
(1.00148 0.00222362 0)
(1.00185 0.00230069 0)
(1.00207 0.00223697 0)
(1.00182 0.0025389 0)
(1.00177 0.00317147 0)
(1.00222 0.00355379 0)
(1.00275 0.00373184 0)
(1.00291 0.00407659 0)
(1.00314 0.00456394 0)
(1.00365 0.0048881 0)
(1.00436 0.00499743 0)
(1.00472 0.00504765 0)
(1.00475 0.00517953 0)
(0.999999 0.000247409 0)
(1.00011 0.000614974 0)
(1.00053 0.000826774 0)
(1.0007 0.000787549 0)
(1.00089 0.00108867 0)
(1.00116 0.00152424 0)
(1.00137 0.0018656 0)
(1.0015 0.00221265 0)
(1.00182 0.00234142 0)
(1.00208 0.00232673 0)
(1.00195 0.00257266 0)
(1.00194 0.00311561 0)
(1.00232 0.00350456 0)
(1.00285 0.00370512 0)
(1.00309 0.00397966 0)
(1.00333 0.00438997 0)
(1.00376 0.00469849 0)
(1.0044 0.00482778 0)
(1.00477 0.00487952 0)
(1.00483 0.00499026 0)
(1 0.000244038 0)
(1.00011 0.000596835 0)
(1.0005 0.000817507 0)
(1.00069 0.000854987 0)
(1.00092 0.00113782 0)
(1.00121 0.00150669 0)
(1.00142 0.00183115 0)
(1.00154 0.00219161 0)
(1.00181 0.00237137 0)
(1.00209 0.00240173 0)
(1.00207 0.00260363 0)
(1.0021 0.00306979 0)
(1.00244 0.00344045 0)
(1.00295 0.00365534 0)
(1.00324 0.00388807 0)
(1.00351 0.00422529 0)
(1.00388 0.00451273 0)
(1.00445 0.00465587 0)
(1.00482 0.00470638 0)
(1.0049 0.00480493 0)
(1.00001 0.000240247 0)
(1.00011 0.000586146 0)
(1.00048 0.000810874 0)
(1.00069 0.000902381 0)
(1.00095 0.00118394 0)
(1.00125 0.00150747 0)
(1.00147 0.00180441 0)
(1.00159 0.00216102 0)
(1.00182 0.00238513 0)
(1.00211 0.00246458 0)
(1.00217 0.00262927 0)
(1.00225 0.00302381 0)
(1.00255 0.00337281 0)
(1.00304 0.00358798 0)
(1.00337 0.00379398 0)
(1.00367 0.00407359 0)
(1.00401 0.00432645 0)
(1.0045 0.00448322 0)
(1.00486 0.00453026 0)
(1.00495 0.00461848 0)
(1.00001 0.000236808 0)
(1.00011 0.000579929 0)
(1.00047 0.000808596 0)
(1.0007 0.000934936 0)
(1.00097 0.00122143 0)
(1.00128 0.00151978 0)
(1.00152 0.00178979 0)
(1.00164 0.00212899 0)
(1.00184 0.00238089 0)
(1.00213 0.00250924 0)
(1.00225 0.00265659 0)
(1.00238 0.00297718 0)
(1.00266 0.00329662 0)
(1.00313 0.00351213 0)
(1.00348 0.00369058 0)
(1.0038 0.00393057 0)
(1.00412 0.00414432 0)
(1.00456 0.00430552 0)
(1.00489 0.00435846 0)
(1.005 0.00443049 0)
(1.00002 0.000233693 0)
(1.00011 0.000576216 0)
(1.00046 0.000810768 0)
(1.0007 0.000959054 0)
(1.00099 0.00124999 0)
(1.00131 0.00153532 0)
(1.00156 0.00178435 0)
(1.00169 0.00210188 0)
(1.00188 0.00236407 0)
(1.00215 0.00252846 0)
(1.00231 0.00267747 0)
(1.0025 0.0029416 0)
(1.00277 0.0032139 0)
(1.00321 0.00342779 0)
(1.00357 0.00358431 0)
(1.00392 0.00378777 0)
(1.00423 0.00397256 0)
(1.00462 0.00412215 0)
(1.00492 0.00418742 0)
(1.00504 0.00424277 0)
(1.00002 0.000231574 0)
(1.00011 0.00057296 0)
(1.00045 0.00081708 0)
(1.00071 0.000977804 0)
(1.00102 0.00126878 0)
(1.00134 0.00155159 0)
(1.00159 0.00178792 0)
(1.00175 0.00208069 0)
(1.00192 0.00234086 0)
(1.00219 0.00252794 0)
(1.00237 0.00267649 0)
(1.00259 0.00290967 0)
(1.00287 0.0031365 0)
(1.00329 0.00333226 0)
(1.00365 0.00347808 0)
(1.00402 0.00364411 0)
(1.00432 0.00380458 0)
(1.00469 0.0039391 0)
(1.00495 0.00400902 0)
(1.00507 0.00405915 0)
(1.00002 0.000229925 0)
(1.00011 0.000569728 0)
(1.00044 0.000825339 0)
(1.00072 0.000995808 0)
(1.00104 0.0012799 0)
(1.00136 0.0015627 0)
(1.00162 0.00179546 0)
(1.00179 0.00206529 0)
(1.00196 0.00231532 0)
(1.00222 0.00251777 0)
(1.00243 0.00266132 0)