/*--------------------------------*- C++ -*----------------------------------*\
| =========                 |                                                 |
| \\      /  F ield         | OpenFOAM: The Open Source CFD Toolbox           |
|  \\    /   O peration     | Version:  3.0.1                                 |
|   \\  /    A nd           | Web:      www.OpenFOAM.org                      |
|    \\/     M anipulation  |                                                 |
\*---------------------------------------------------------------------------*/
FoamFile
{
    version     2.0;
    format      ascii;
    class       volScalarField;
    location    "0.4";
    object      p;
}
// * * * * * * * * * * * * * * * * * * * * * * * * * * * * * * * * * * * * * //

dimensions      [0 2 -2 0 0 0 0];

internalField   nonuniform List<scalar> 
9600
(
5.3296e-11
0.00574246
0.00528577
0.00377582
0.00364018
0.00508559
0.00524808
0.00632701
0.00672929
0.00691386
0.00637727
0.00839724
0.00750988
0.00851529
0.00890718
0.0101894
0.0107862
0.0130851
0.0148703
0.0199254
1.0767e-06
0.00573803
0.00528822
0.0037859
0.00364723
0.00508229
0.0052485
0.00632204
0.00672613
0.00692206
0.00638316
0.00837399
0.0075135
0.00851165
0.00891261
0.0101808
0.010805
0.0130389
0.0148973
0.0193061
2.21886e-06
0.00573182
0.00529415
0.00379634
0.00365423
0.00507479
0.00524811
0.00631821
0.0067258
0.00693227
0.00638991
0.00834792
0.00752297
0.00850292
0.0089193
0.0101701
0.0108197
0.0129886
0.0148821
0.0187176
4.63386e-06
0.00572877
0.00530131
0.00380537
0.00366177
0.00506517
0.00524735
0.00632022
0.00672593
0.00694411
0.00639886
0.00832029
0.00753549
0.00849014
0.00892652
0.0101571
0.010835
0.0129233
0.0148461
0.0181663
9.93265e-06
0.00572874
0.00530808
0.00381376
0.00367213
0.00505422
0.00524667
0.00632578
0.00672491
0.00695536
0.00641013
0.00829143
0.00754974
0.00847459
0.0089345
0.0101396
0.010849
0.0128462
0.014789
0.0176568
1.90685e-05
0.00572994
0.00531329
0.00382191
0.00368624
0.00504264
0.00524609
0.00633216
0.00672251
0.00696461
0.00642318
0.00826219
0.00756568
0.00845716
0.00894334
0.0101169
0.0108619
0.01276
0.0147098
0.0171796
3.24175e-05
0.00573105
0.00531612
0.00383
0.00370424
0.00503159
0.00524601
0.00633776
0.00671867
0.00697112
0.00643776
0.0082336
0.00758357
0.00843866
0.00895345
0.0100897
0.0108732
0.0126658
0.0146066
0.0167301
4.99901e-05
0.00573127
0.00531621
0.00383812
0.00372594
0.00502227
0.005247
0.00634172
0.00671341
0.00697494
0.00645377
0.00820522
0.00760371
0.0084197
0.00896514
0.0100584
0.0108808
0.0125654
0.0144784
0.016305
7.15194e-05
0.00573022
0.00531384
0.00384634
0.003751
0.00501535
0.00524941
0.00634376
0.00670695
0.00697647
0.00647098
0.00817646
0.00762627
0.00840034
0.00897815
0.0100234
0.0108825
0.0124605
0.0143251
0.0159012
9.65491e-05
0.00572797
0.0053096
0.00385468
0.00377893
0.00501082
0.00525334
0.00634398
0.00669968
0.00697606
0.00648915
0.00814688
0.00765105
0.00838032
0.00899189
0.00998558
0.0108764
0.0123526
0.0141476
0.0155146
0.000124538
0.00572486
0.00530419
0.0038631
0.00380924
0.0050082
0.00525871
0.0063426
0.00669206
0.00697396
0.00650809
0.00811629
0.00767756
0.00835936
0.00900551
0.00994594
0.0108609
0.0122425
0.0139479
0.0151406
0.000154958
0.00572116
0.00529821
0.00387157
0.00384143
0.00500685
0.00526533
0.00633978
0.00668461
0.0069703
0.00652769
0.00808464
0.00770517
0.00833734
0.00901797
0.00990533
0.0108343
0.0121301
0.0137288
0.0147747
0.000187372
0.00571706
0.00529216
0.00388006
0.00387509
0.00500618
0.005273
0.0063356
0.00667775
0.00696496
0.00654782
0.00805205
0.00773324
0.00831444
0.00902808
0.00986442
0.0107954
0.0120147
0.0134939
0.0144135
0.000221489
0.00571257
0.00528639
0.00388851
0.00390994
0.00500576
0.00528159
0.00633012
0.00667178
0.00695764
0.00656828
0.00801875
0.0077611
0.00829109
0.0090347
0.00982353
0.010744
0.0118943
0.0132473
0.0140549
0.000257174
0.00570763
0.00528114
0.00389684
0.00394584
0.00500535
0.00529107
0.00632334
0.00666685
0.00694937
0.00658881
0.00798508
0.00778805
0.00826771
0.00903686
0.00978253
0.0106807
0.0117668
0.0129922
0.013698
0.000294407
0.00570214
0.0052766
0.00390499
0.00398275
0.00500479
0.00530143
0.00631524
0.00666298
0.00693998
0.00660907
0.0079515
0.00781345
0.00824467
0.0090339
0.00974062
0.0106064
0.0116307
0.0127308
0.0133428
0.000333247
0.00569593
0.0052729
0.00391287
0.00402067
0.005004
0.00531271
0.00630587
0.00666007
0.0069296
0.00662857
0.00791848
0.00783679
0.00822215
0.0090255
0.00969642
0.0105221
0.0114854
0.012465
0.0129895
0.000373791
0.00568883
0.0052702
0.0039204
0.00405964
0.00500291
0.00532491
0.00629528
0.00665797
0.00691859
0.00664669
0.00788652
0.00785769
0.00820005
0.00901179
0.00964846
0.0104283
0.011331
0.012196
0.0126383
0.000416161
0.00568064
0.00526862
0.00392748
0.00409968
0.0050015
0.00533804
0.00628352
0.00665638
0.00690755
0.00666284
0.00785592
0.00787593
0.00817787
0.00899316
0.0095956
0.0103247
0.0111686
0.0119251
0.0122894
0.00046049
0.00567114
0.00526832
0.00393404
0.00414082
0.00499975
0.00535203
0.0062708
0.00665487
0.00689712
0.00667655
0.00782667
0.00789168
0.0081547
0.0089699
0.00953738
0.010211
0.0109995
0.0116539
0.0119429
0.000506924
0.0056601
0.00526944
0.00393998
0.00418307
0.00499768
0.00536676
0.00625741
0.00665296
0.0068879
0.00668755
0.00779856
0.00790531
0.00812954
0.00894189
0.00947381
0.0100864
0.0108244
0.0113847
0.011599
0.000555618
0.00564727
0.00527214
0.00394522
0.00422636
0.00499537
0.00538204
0.00624374
0.00665006
0.00688034
0.00669558
0.0077712
0.00791749
0.00810141
0.00890851
0.00940563
0.00995008
0.0106432
0.0111203
0.0112594
0.000606736
0.00563238
0.00527655
0.00394969
0.00427062
0.00499299
0.00539761
0.00623032
0.00664556
0.00687479
0.00670063
0.00774396
0.00792898
0.00806945
0.00886828
0.00933429
0.00980254
0.0104538
0.0108627
0.0109267
0.000660444
0.00561515
0.00528281
0.00395335
0.00431576
0.00499074
0.00541304
0.0062177
0.00663887
0.00687164
0.00670328
0.00771576
0.0079394
0.00803352
0.00881916
0.00926086
0.0096457
0.0102543
0.0106121
0.0106039
0.000716922
0.00559532
0.00529102
0.0039562
0.00436161
0.0049889
0.00542779
0.00620651
0.00662962
0.00687144
0.0067043
0.00768525
0.00795098
0.00799413
0.0087593
0.00918544
0.00948242
0.0100435
0.0103672
0.0102936
0.000776351
0.00557261
0.00530123
0.00395828
0.00440792
0.00498791
0.00544131
0.00619744
0.00661754
0.00687445
0.0067044
0.00765108
0.00796269
0.00795213
0.00868718
0.00910765
0.00931607
0.00982103
0.0101265
0.00999837
0.000838905
0.0055468
0.00531349
0.00395966
0.00445439
0.00498827
0.00545298
0.00619107
0.00660248
0.0068761
0.00670469
0.0076121
0.00797378
0.00790869
0.00860125
0.00902634
0.00915072
0.00958728
0.00988692
0.00972089
0.000904753
0.00551766
0.00532778
0.00396046
0.00450061
0.00499061
0.00546207
0.0061878
0.00658458
0.00687764
0.00670654
0.00756745
0.00798281
0.00786567
0.00850048
0.00893894
0.00899077
0.00934501
0.00964399
0.00946259
0.000974054
0.005485
0.00534405
0.00396081
0.00454612
0.00499569
0.00546784
0.00618789
0.00656441
0.00687789
0.00671102
0.00751662
0.00798766
0.00782568
0.00838555
0.00884186
0.00883939
0.00909947
0.0093926
0.00922106
0.00104696
0.00544872
0.0053622
0.00396095
0.00459035
0.00500424
0.00546964
0.00619142
0.00654276
0.00687535
0.00671908
0.00745964
0.00798532
0.00779094
0.00825869
0.00873096
0.00869695
0.00885774
0.0091305
0.0089892
0.0011236
0.00540873
0.0053821
0.00396115
0.00463268
0.00501697
0.00546696
0.0061982
0.0065206
0.0068684
0.00673136
0.0073973
0.00797227
0.00776227
0.00812386
0.00860266
0.00855994
0.00862724
0.00886139
0.0087579
0.0012041
0.00536498
0.0054032
0.0039617
0.00467245
0.00503455
0.0054594
0.00620767
0.00649939
0.00685519
0.00674771
0.00733137
0.00794496
0.00773873
0.00798712
0.0084565
0.0084227
0.00841149
0.00859364
0.00852244
0.00128853
0.00531748
0.00542587
0.00396296
0.00470885
0.0050578
0.00544687
0.00621881
0.00648094
0.00683396
0.00676737
0.00726495
0.0079
0.00771776
0.00785461
0.00829547
0.00827999
0.00820775
0.00833345
0.00828579
0.00137695
0.00526624
0.00544996
0.00396542
0.00474092
0.00508768
0.00542956
0.00623016
0.00646738
0.00680333
0.00678843
0.00720225
0.00783596
0.00769501
0.00773072
0.00812306
0.0081293
0.00801307
0.00808173
0.00805171
0.00146942
0.00521136
0.00547508
0.00396962
0.00476763
0.00512464
0.00540787
0.00623986
0.00646112
0.00676272
0.00680718
0.00714737
0.00775389
0.00766368
0.00761804
0.00794413
0.00796901
0.00782613
0.00783873
0.00781897
0.00156598
0.00515308
0.00550092
0.00397609
0.00478782
0.00516892
0.00538288
0.00624535
0.00646412
0.00671302
0.00681839
0.00710292
0.00765706
0.00761664
0.0075154
0.00776613
0.00779875
0.00764407
0.00760731
0.00758603
0.00166667
0.00509159
0.00552715
0.00398559
0.00480013
0.00522058
0.00535639
0.00624329
0.00647762
0.00665713
0.0068165
0.00706922
0.00755287
0.0075498
0.00741871
0.00759642
0.00762231
0.00746178
0.00738884
0.00735627
0.00177155
0.00502711
0.00555325
0.00399915
0.00480315
0.00527935
0.00533092
0.00623022
0.00650169
0.00659939
0.00679552
0.00704575
0.00745077
0.00746375
0.00732105
0.00743795
0.00744666
0.00727636
0.00717925
0.0071347
0.00188062
0.00495993
0.0055785
0.00401799
0.00479563
0.00534419
0.00530986
0.0062034
0.00653455
0.00654556
0.0067515
0.00702644
0.00735901
0.0073625
0.00721444
0.00728761
0.00727975
0.00709222
0.00697193
0.00692149
0.00199386
0.00489041
0.00560199
0.00404365
0.00477673
0.00541281
0.00529701
0.00616093
0.00657213
0.00650182
0.00668473
0.0070006
0.00728164
0.00725273
0.00709458
0.00713985
0.00712538
0.00691864
0.00676581
0.00671144
0.00211124
0.00482028
0.00562259
0.0040778
0.00474621
0.00548161
0.00529647
0.00610238
0.00660818
0.00647553
0.00659803
0.00695785
0.00721745
0.00714372
0.00696248
0.00698808
0.0069798
0.00676357
0.00656987
0.00650073
0.00223262
0.00474754
0.005639
0.00412206
0.00470453
0.00554589
0.00531201
0.00602939
0.00663495
0.00646915
0.00649928
0.00689109
0.00716235
0.00704499
0.00682267
0.00682698
0.00683679
0.00662826
0.00639501
0.0062953
0.00235773
0.00467446
0.00564974
0.00417761
0.00465335
0.00560086
0.0053451
0.00594552
0.0066454
0.00648255
0.00639826
0.00679636
0.00710921
0.00696341
0.00668137
0.00665406
0.00669088
0.00650778
0.00624631
0.00610753
0.0024862
0.00460221
0.00565321
0.00424512
0.00459564
0.00564144
0.00539549
0.00585679
0.00663395
0.00651262
0.00630552
0.00667433
0.00704714
0.00690093
0.0065481
0.00647002
0.00653585
0.00639835
0.00612348
0.00594425
0.00261759
0.00453205
0.00564757
0.00432482
0.00453564
0.00566277
0.00546076
0.00577019
0.00659684
0.00655291
0.00623131
0.00653001
0.00696387
0.00685347
0.00643496
0.00628121
0.00636347
0.00629441
0.00602757
0.00580814
0.00275134
0.00446552
0.00563115
0.00441578
0.00447849
0.0056616
0.00553585
0.00569236
0.00653341
0.00659511
0.00618214
0.00637048
0.00685019
0.00681306
0.00635133
0.00609954
0.00616957
0.0061825
0.00595736
0.00570462
0.00288656
0.00440428
0.00560303
0.00451598
0.0044292
0.00563644
0.00561452
0.00562837
0.00644523
0.00663059
0.00616166
0.0062065
0.00670228
0.00676736
0.00629838
0.00594003
0.0059618
0.00604653
0.00590192
0.00564083
0.00302232
0.00434994
0.00556276
0.00462242
0.00439225
0.00558722
0.00569029
0.00558211
0.00633588
0.00665021
0.00616961
0.00605316
0.00652232
0.00670098
0.00626884
0.00581589
0.00575657
0.00588021
0.00584027
0.00561285
0.00315761
0.00430406
0.00551048
0.0047308
0.00437121
0.00551675
0.00575631
0.00555526
0.0062107
0.00664522
0.00620189
0.00592602
0.00631844
0.00660047
0.00625207
0.00573253
0.0055703
0.00569424
0.0057533
0.00560346
0.00329119
0.00426776
0.00544731
0.00483641
0.00436837
0.00543
0.00580679
0.00554746
0.00607556
0.00660931
0.00625099
0.00583624
0.0061023
0.00645869
0.00623275
0.00568729
0.00541645
0.00550565
0.00563758
0.00558961
0.00342195
0.00424185
0.00537487
0.00493489
0.00438523
0.0053322
0.0058369
0.00555747
0.00593701
0.0065384
0.0063051
0.00578966
0.00589127
0.00627638
0.00619258
0.00567277
0.00530443
0.00532821
0.00550337
0.00555559
0.0035487
0.0042268
0.00529566
0.00502173
0.00442157
0.00522973
0.0058429
0.00558216
0.00580381
0.00643133
0.00634815
0.00578562
0.00570717
0.00606335
0.00611408
0.00567504
0.00523895
0.005174
0.00536171
0.00550156
0.00367027
0.00422257
0.00521292
0.00509375
0.00447524
0.00513055
0.00582356
0.00561571
0.00568564
0.00629208
0.00636362
0.00581697
0.00556901
0.0058362
0.00598884
0.00567077
0.00521455
0.00505582
0.00522036
0.00543264
0.00378579
0.00422887
0.00512998
0.00514846
0.00454328
0.00503989
0.00577849
0.00565212
0.00558985
0.00612695
0.00633961
0.00586997
0.0054846
0.00561868
0.00582494
0.005637
0.00521602
0.00498274
0.0050912
0.00535055
0.00389448
0.00424512
0.00504992
0.00518476
0.00462117
0.00496159
0.00570938
0.00568408
0.00552142
0.00594704
0.00626898
0.00592485
0.00545221
0.00543456
0.00563718
0.00556419
0.00521819
0.00495079
0.00498968
0.00525793
0.00399581
0.00427034
0.00497515
0.00520269
0.0047032
0.00489926
0.00562069
0.00570244
0.00548081
0.00576959
0.00615241
0.00595788
0.0054659
0.00530097
0.00544588
0.00545867
0.00520054
0.00494171
0.0049233
0.00516436
0.00408945
0.00430305
0.00490815
0.00520309
0.00478413
0.00485475
0.00551814
0.00570046
0.00546385
0.00561305
0.00599824
0.00594951
0.00550725
0.00522557
0.00527633
0.00533058
0.0051583
0.00493033
0.00488268
0.00508113
0.00417524
0.00434151
0.00485077
0.00518796
0.00485862
0.00482859
0.00540821
0.00567465
0.0054628
0.00548739
0.00582215
0.00589248
0.00554613
0.0052029
0.00515002
0.00519899
0.00509676
0.00490504
0.00484595
0.00500857
0.00425314
0.00438407
0.00480405
0.0051602
0.00492224
0.00481991
0.00529787
0.00562324
0.00546739
0.00539512
0.00564688
0.00579194
0.00555954
0.00521626
0.00507498
0.00508551
0.00502445
0.00486916
0.00479923
0.00493343
0.00432333
0.00442891
0.00476841
0.00512286
0.00497216
0.00482602
0.00519485
0.00554823
0.00546593
0.00533422
0.00548973
0.00565931
0.00553439
0.00523738
0.00504654
0.00500658
0.00495588
0.00482896
0.00474467
0.0048435
0.00438622
0.00447413
0.00474364
0.00507894
0.00500654
0.00484292
0.00510558
0.00545507
0.00544703
0.00529902
0.00536168
0.00551379
0.00547172
0.00524343
0.00504617
0.00496552
0.0049054
0.0047932
0.00469137
0.00473933
0.00444227
0.00451811
0.00472883
0.0050253
0.00502463
0.00486582
0.00503327
0.00535149
0.00540567
0.00527718
0.00526801
0.00537464
0.00537952
0.00522125
0.00504985
0.00495598
0.00488019
0.00476961
0.00465023
0.00463393
0.00449202
0.00455946
0.00472315
0.00498087
0.00502712
0.00489224
0.00497891
0.00524659
0.00534385
0.00525203
0.00520344
0.00525779
0.00527273
0.00517096
0.00503745
0.00495826
0.00488094
0.00476291
0.00462855
0.00454866
0.0045361
0.0045971
0.00472478
0.00493977
0.00501502
0.00491151
0.00494103
0.00514866
0.00526627
0.00521507
0.00515752
0.0051698
0.00517073
0.00509958
0.00500046
0.0049496
0.00489499
0.00477565
0.00462782
0.00449868
0.00457514
0.00463032
0.00473132
0.00490407
0.0049915
0.00492184
0.00491685
0.0050641
0.00517881
0.00516385
0.00511572
0.00510492
0.00508732
0.00502238
0.0049436
0.00491507
0.00490105
0.00480189
0.00464601
0.00448662
0.00460975
0.00465885
0.00474027
0.00487485
0.00496071
0.00492145
0.00490039
0.00499535
0.00509027
0.00509929
0.00506987
0.00505455
0.0050245
0.00495434
0.00487705
0.00485594
0.00487958
0.00482629
0.00467885
0.00450435
0.0046404
0.00468273
0.00474936
0.00485215
0.00492701
0.00491055
0.00488557
0.00494058
0.00500992
0.00502599
0.00501504
0.00500795
0.00497683
0.00490242
0.00481646
0.00478323
0.00482466
0.00482829
0.00471505
0.00454315
0.00466731
0.00470236
0.00475693
0.004835
0.00489391
0.00489078
0.00486873
0.00489695
0.00494154
0.0049517
0.00495066
0.00495768
0.00493716
0.00486412
0.00477025
0.00471395
0.00474635
0.0047947
0.00473821
0.00459071
0.00469058
0.00471842
0.00476214
0.00482181
0.00486418
0.00486468
0.00484784
0.00486032
0.00488414
0.00488456
0.00488216
0.0048987
0.00489688
0.00483507
0.00473862
0.00466074
0.00466284
0.00472893
0.004733
0.00463171
0.00471023
0.00473146
0.00476481
0.00481127
0.00483896
0.00483587
0.00482233
0.00482681
0.00483608
0.00482683
0.00481654
0.00483309
0.00484897
0.00480822
0.00471707
0.00462674
0.00459377
0.00464558
0.00469357
0.00465012
0.00472629
0.0047419
0.00476527
0.00480065
0.00481757
0.00480791
0.0047936
0.00479373
0.00479504
0.00477778
0.00475888
0.0047672
0.00479156
0.00477598
0.00470055
0.00460762
0.00454849
0.00456741
0.00462884
0.00463614
0.0047389
0.00475001
0.00476418
0.00478928
0.00479893
0.00478278
0.00476396
0.00475989
0.00475781
0.00473634
0.00470996
0.00470717
0.00472982
0.00473408
0.0046824
0.00459698
0.004525
0.00451007
0.00455648
0.00459309
0.00474833
0.00475594
0.00476199
0.00477731
0.00478167
0.00476085
0.00473581
0.00472595
0.00472191
0.00470063
0.00466919
0.00465581
0.00467022
0.00468443
0.00465739
0.00458844
0.00451489
0.00447643
0.00449456
0.00453375
0.00475498
0.00475967
0.00475948
0.00476529
0.00476478
0.00474144
0.00471087
0.0046938
0.00468669
0.00466777
0.00463523
0.00461338
0.00461759
0.00463295
0.00462438
0.00457639
0.0045105
0.00446021
0.00445111
0.00447434
0.00475934
0.0047615
0.00475667
0.00475395
0.00474827
0.00472369
0.00468929
0.00466503
0.00465323
0.00463626
0.00460604
0.00457906
0.00457343
0.00458457
0.00458644
0.00455781
0.00450514
0.00445294
0.00442509
0.00442658
0.00476186
0.0047618
0.00475359
0.00474384
0.00473279
0.0047071
0.00467054
0.00464028
0.00462285
0.00460629
0.0045797
0.00455135
0.00453796
0.00454226
0.00454759
0.00453291
0.00449464
0.00444754
0.00441023
0.00439351
0.00476303
0.00476092
0.00475033
0.00473526
0.00471893
0.00469201
0.00465434
0.00461957
0.00459649
0.00457862
0.00455539
0.0045286
0.0045105
0.00450776
0.00451141
0.00450447
0.00447809
0.00443851
0.00439927
0.00437078
0.00476332
0.00475945
0.00474708
0.00472823
0.00470718
0.00467882
0.00464092
0.00460297
0.00457464
0.0045545
0.00453376
0.00450973
0.00448977
0.00448135
0.00448163
0.00447844
0.00446067
0.00442761
0.00438738
0.00434942
0.00476303
0.00475785
0.00474433
0.00472307
0.00469801
0.00466804
0.00463063
0.00459121
0.00455883
0.00453579
0.0045161
0.0044947
0.00447411
0.00446069
0.0044561
0.00445376
0.00444373
0.00442065
0.00438644
0.00434682
0.00476287
0.00475624
0.00474152
0.00471833
0.00468955
0.00465671
0.00461869
0.00457862
0.00454376
0.00451792
0.00449777
0.00447811
0.00445843
0.00444292
0.0044343
0.00442924
0.00442004
0.00440037
0.0043693
0.00433024
0.0228464
0.0164833
0.00805671
0.00182896
-0.000178338
0.000377906
0.00135661
0.0019594
0.00213472
0.00214395
0.0021548
0.00213881
0.00211495
0.00213024
0.00214606
0.00212387
0.00207752
0.00203266
0.00199896
0.00198692
0.00198527
0.00194222
0.00186158
0.00180543
0.00179029
0.00177517
0.00172174
0.00166076
0.00163608
0.00161212
0.00157096
0.0015604
0.00157815
0.00156351
0.00151505
0.00149172
0.00149391
0.00147526
0.00144081
0.00140922
0.0013887
0.00139038
0.00137847
0.00133067
0.001306
0.00132156
0.00132147
0.00130812
0.00132214
0.00135084
0.00136715
0.00138605
0.00141841
0.00145454
0.0014874
0.0015204
0.00154946
0.00157577
0.00160376
0.00163323
0.00166344
0.00169594
0.00173204
0.00176538
0.00179945
0.00183383
0.0018712
0.00190675
0.00194309
0.00197988
0.00201674
0.00205484
0.0020913
0.00213037
0.00216749
0.00220679
0.0022455
0.00228417
0.00232517
0.00236292
0.00240556
0.00244374
0.00248598
0.00252725
0.00256669
0.00261252
0.00264953
0.00269715
0.00273705
0.00278043
0.00282866
0.00286733
0.00291903
0.00296405
0.00300862
0.00306344
0.00310984
0.0031542
0.00320663
0.00324807
0.0220021
0.0163238
0.00814101
0.00197375
-8.70408e-05
0.000422209
0.00138447
0.00197924
0.00214894
0.00215462
0.00216352
0.00214617
0.00212121
0.0021358
0.00215115
0.00212851
0.00208171
0.00203642
0.00200233
0.00198996
0.00198811
0.00194488
0.00186394
0.0018075
0.00179218
0.00177694
0.00172337
0.00166222
0.00163743
0.00161342
0.00157212
0.00156145
0.00157917
0.00156451
0.00151595
0.00149252
0.00149469
0.001476
0.00144148
0.00140984
0.00138926
0.00139089
0.00137897
0.00133111
0.00130637
0.00132191
0.00132181
0.0013084
0.00132238
0.00135106
0.00136735
0.00138622
0.00141856
0.00145467
0.00148751
0.0015205
0.00154955
0.00157584
0.00160383
0.00163328
0.00166349
0.00169598
0.00173207
0.0017654
0.00179947
0.00183385
0.00187122
0.00190676
0.0019431
0.00197989
0.00201675
0.00205484
0.0020913
0.00213037
0.00216749
0.00220679
0.0022455
0.00228417
0.00232517
0.00236292
0.00240556
0.00244374
0.00248597
0.00252725
0.00256669
0.00261252
0.00264953
0.00269715
0.00273705
0.00278043
0.00282866
0.00286733
0.00291903
0.00296405
0.00300862
0.00306344
0.00310984
0.0031542
0.00320663
0.00324808
0.0212318
0.0161839
0.00832809
0.00225234
7.37419e-05
0.000480694
0.00141095
0.00199975
0.00216637
0.00216865
0.00217463
0.00215498
0.00212828
0.00214166
0.00215614
0.00213288
0.00208567
0.00204004
0.00200558
0.00199286
0.00199079
0.00194735
0.00186615
0.0018095
0.00179402
0.00177863
0.00172487
0.00166352
0.00163867
0.0016146
0.00157317
0.00156239
0.00158011
0.00156542
0.00151675
0.00149325
0.00149541
0.00147667
0.00144209
0.00141041
0.00138977
0.00139137
0.00137945
0.00133151
0.0013067
0.00132224
0.00132211
0.00130864
0.00132259
0.00135128
0.00136754
0.00138637
0.00141869
0.00145479
0.00148762
0.0015206
0.00154964
0.00157591
0.00160389
0.00163334
0.00166353
0.00169602
0.0017321
0.00176543
0.00179949
0.00183387
0.00187123
0.00190677
0.00194311
0.0019799
0.00201676
0.00205485
0.00209131
0.00213037
0.00216749
0.00220679
0.0022455
0.00228417
0.00232517
0.00236291
0.00240556
0.00244374
0.00248597
0.00252725
0.00256669
0.00261252
0.00264952
0.00269715
0.00273705
0.00278043
0.00282866
0.00286733
0.00291903
0.00296405
0.00300862
0.00306344
0.00310984
0.0031542
0.00320663
0.00324809
0.0205087
0.0160428
0.0085611
0.00259927
0.000289972
0.000560738
0.00144698
0.00202898
0.00219237
0.00218957
0.00219049
0.00216722
0.00213811
0.00214959
0.00216249
0.0021382
0.00209051
0.00204462
0.00200972
0.00199637
0.00199381
0.00195019
0.00186894
0.00181218
0.00179643
0.00178071
0.00172666
0.00166508
0.00164013
0.00161598
0.0015744
0.0015635
0.00158117
0.00156643
0.00151767
0.00149411
0.00149624
0.00147742
0.00144278
0.00141107
0.00139038
0.00139195
0.00138001
0.00133199
0.0013071
0.00132264
0.00132249
0.00130895
0.00132287
0.00135155
0.00136777
0.00138656
0.00141887
0.00145495
0.00148776
0.00152072
0.00154975
0.001576
0.00160396
0.0016334
0.00166359
0.00169607
0.00173215
0.00176547
0.00179952
0.00183389
0.00187126
0.00190679
0.00194312
0.00197991
0.00201676
0.00205485
0.00209131
0.00213038
0.00216749
0.0022068
0.0022455
0.00228417
0.00232517
0.00236291
0.00240556
0.00244374
0.00248597
0.00252725
0.00256668
0.00261252
0.00264952
0.00269715
0.00273705
0.00278043
0.00282866
0.00286733
0.00291903
0.00296405
0.00300862
0.00306344
0.00310985
0.0031542
0.00320664
0.00324809
0.0197943
0.0158726
0.00879534
0.00296126
0.00052521
0.000650201
0.00148716
0.002064
0.00222598
0.00221761
0.00221188
0.00218389
0.00215176
0.00216054
0.00217099
0.00214515
0.0020969
0.00205092
0.00201553
0.00200105
0.00199741
0.00195352
0.00187264
0.00181605
0.00179992
0.00178365
0.00172916
0.00166726
0.0016421
0.00161783
0.0015761
0.00156499
0.00158248
0.00156766
0.0015189
0.0014953
0.00149731
0.00147836
0.00144367
0.001412
0.00139125
0.00139274
0.00138075
0.00133267
0.00130772
0.00132323
0.00132301
0.0013094
0.00132329
0.00135194
0.0013681
0.00138685
0.00141913
0.00145519
0.00148798
0.00152092
0.00154992
0.00157614
0.00160408
0.00163351
0.00166368
0.00169615
0.00173222
0.00176553
0.00179957
0.00183393
0.00187129
0.00190682
0.00194315
0.00197993
0.00201678
0.00205487
0.00209132
0.00213038
0.0021675
0.0022068
0.00224551
0.00228417
0.00232517
0.00236291
0.00240556
0.00244374
0.00248597
0.00252725
0.00256668
0.00261252
0.00264952
0.00269715
0.00273705
0.00278042
0.00282866
0.00286732
0.00291903
0.00296405
0.00300862
0.00306344
0.00310985
0.0031542
0.00320664
0.0032481
0.019085
0.0156668
0.00901853
0.00332479
0.000769548
0.000744035
0.00152723
0.00210046
0.0022634
0.00224988
0.00223682
0.00220366
0.00216835
0.00217403
0.00218152
0.0021538
0.00210502
0.00205917
0.00202339
0.00200728
0.00200178
0.00195739
0.00187727
0.0018212
0.00180461
0.0017876
0.00173266
0.00167039
0.00164483
0.00162038
0.00157853
0.00156707
0.00158413
0.00156921
0.00152059
0.00149698
0.00149872
0.00147954
0.00144488
0.00141332
0.00139251
0.00139384
0.00138179
0.00133369
0.00130868
0.00132409
0.00132377
0.0013101
0.00132395
0.00135253
0.00136862
0.00138731
0.00141955
0.00145556
0.00148831
0.00152122
0.00155019
0.00157637
0.00160427
0.00163368
0.00166383
0.00169627
0.00173233
0.00176562
0.00179965
0.001834
0.00187135
0.00190687
0.00194319
0.00197996
0.00201681
0.00205489
0.00209134
0.0021304
0.00216751
0.00220681
0.00224551
0.00228418
0.00232517
0.00236292
0.00240556
0.00244374
0.00248597
0.00252725
0.00256668
0.00261252
0.00264952
0.00269715
0.00273705
0.00278042
0.00282866
0.00286732
0.00291903
0.00296405
0.00300862
0.00306344
0.00310985
0.00315421
0.00320664
0.00324811
0.0183853
0.015428
0.0092283
0.00368853
0.00102304
0.000842914
0.00156687
0.002137
0.00230292
0.00228471
0.00226384
0.00222513
0.0021865
0.00218896
0.00219331
0.00216365
0.00211446
0.00206905
0.00203308
0.00201506
0.00200707
0.00196187
0.00188276
0.00182746
0.00181032
0.00179243
0.00173717
0.00167461
0.00164852
0.0016238
0.00158189
0.0015699
0.00158621
0.00157114
0.00152288
0.00149931
0.00150059
0.00148103
0.00144646
0.00141516
0.0013943
0.00139537
0.00138322
0.0013352
0.00131014
0.00132535
0.00132489
0.00131117
0.00132495
0.0013534
0.00136939
0.00138801
0.00142017
0.00145612
0.00148882
0.00152169
0.0015506
0.00157672
0.00160457
0.00163394
0.00166407
0.00169648
0.00173251
0.00176577
0.00179979
0.00183412
0.00187145
0.00190695
0.00194326
0.00198002
0.00201685
0.00205493
0.00209137
0.00213042
0.00216753
0.00220682
0.00224553
0.00228418
0.00232518
0.00236292
0.00240556
0.00244374
0.00248597
0.00252726
0.00256668
0.00261252
0.00264952
0.00269715
0.00273705
0.00278042
0.00282867
0.00286732
0.00291903
0.00296405
0.00300862
0.00306344
0.00310985
0.00315422
0.00320664
0.00324811
0.0177017
0.0151591
0.00942234
0.00405225
0.00128716
0.000948661
0.00160649
0.00217291
0.00234377
0.0023216
0.00229251
0.00224775
0.0022056
0.00220477
0.00220591
0.00217426
0.00212475
0.00208
0.00204402
0.00202403
0.00201323
0.00196703
0.001889
0.00183451
0.00181667
0.00179782
0.00174242
0.00167978
0.00165313
0.00162817
0.00158627
0.00157356
0.00158876
0.00157349
0.00152579
0.00150233
0.00150299
0.00148289
0.00144845
0.00141755
0.00139667
0.00139736
0.00138512
0.00133731
0.00131222
0.00132709
0.00132644
0.00131272
0.00132639
0.00135463
0.00137048
0.00138902
0.00142107
0.00145691
0.00148955
0.00152237
0.00155121
0.00157724
0.00160503
0.00163434
0.00166444
0.00169681
0.00173278
0.00176601
0.0018
0.0018343
0.0018716
0.00190708
0.00194337
0.00198012
0.00201694
0.002055
0.00209143
0.00213047
0.00216757
0.00220685
0.00224555
0.0022842
0.00232519
0.00236293
0.00240557
0.00244375
0.00248597
0.00252726
0.00256668
0.00261252
0.00264952
0.00269715
0.00273705
0.00278042
0.00282867
0.00286732
0.00291903
0.00296405
0.00300862
0.00306344
0.00310984
0.00315423
0.00320663
0.00324811
0.0170405
0.0148626
0.00959693
0.00441455
0.00156268
0.00106277
0.00164635
0.00220747
0.00238546
0.00236047
0.00232282
0.00227142
0.00222548
0.00222131
0.00221916
0.00218545
0.00213561
0.0020916
0.00205574
0.0020338
0.00202008
0.00197279
0.00189585
0.00184215
0.00182344
0.0018035
0.00174808
0.00168557
0.00165846
0.00163335
0.00159158
0.00157801
0.0015918
0.00157624
0.00152927
0.001506
0.00150592
0.00148516
0.00145085
0.00142046
0.00139959
0.00139978
0.00138745
0.00134004
0.00131495
0.00132937
0.00132849
0.0013148
0.00132832
0.00135628
0.00137195
0.00139038
0.00142227
0.00145797
0.00149054
0.0015233
0.00155205
0.00157798
0.00160566
0.00163491
0.00166496
0.00169727
0.00173318
0.00176635
0.0018003
0.00183457
0.00187183
0.00190728
0.00194354
0.00198027
0.00201706
0.00205511
0.00209152
0.00213054
0.00216763
0.0022069
0.00224559
0.00228423
0.00232522
0.00236294
0.00240558
0.00244376
0.00248598
0.00252726
0.00256668
0.00261253
0.00264952
0.00269714
0.00273705
0.00278041
0.00282867
0.00286731
0.00291903
0.00296405
0.00300862
0.00306344
0.00310984
0.00315425
0.00320662
0.00324809
0.0164064
0.0145413
0.00974774
0.00477297
0.00184979
0.00118692
0.00168718
0.00224025
0.00242754
0.00240133
0.00235491
0.0022962
0.00224615
0.00223855
0.00223307
0.0021972
0.00214695
0.00210369
0.00206801
0.00204415
0.00202747
0.001979
0.00190314
0.00185022
0.00183054
0.00180938
0.00175399
0.00169175
0.00166428
0.00163913
0.00159759
0.00158311
0.00159528
0.00157932
0.00153317
0.00151017
0.0015093
0.00148781
0.00145365
0.00142384
0.00140295
0.00140253
0.00139013
0.00134331
0.0013183
0.00133216
0.00133103
0.00131741
0.00133076
0.00135836
0.00137382
0.0013921
0.00142378
0.00145928
0.00149175
0.00152446
0.00155313
0.00157893
0.0016065
0.00163567
0.00166565
0.00169789
0.00173371
0.00176681
0.00180072
0.00183494
0.00187215
0.00190756
0.00194378
0.00198048
0.00201724
0.00205526
0.00209164
0.00213065
0.00216772
0.00220697
0.00224565
0.00228428
0.00232526
0.00236297
0.00240561
0.00244377
0.00248599
0.00252727
0.00256668
0.00261253
0.00264952
0.00269714
0.00273706
0.00278041
0.00282867
0.00286731
0.00291903
0.00296404
0.00300862
0.00306344
0.00310983
0.00315428
0.0032066
0.00324807
0.015803
0.0141989
0.00987055
0.00512455
0.00214852
0.00132328
0.00173032
0.00227099
0.00246939
0.00244403
0.00238893
0.00232223
0.00226767
0.00225655
0.00224768
0.00220953
0.00215877
0.00211625
0.00208081
0.00205504
0.0020353
0.00198556
0.00191079
0.00185869
0.00183799
0.00181553
0.00176011
0.00169821
0.00167045
0.00164533
0.00160412
0.00158872
0.00159913
0.00158269
0.00153741
0.00151471
0.00151301
0.00149079
0.00145681
0.00142761
0.00140668
0.00140554
0.00139306
0.00134699
0.00132215
0.0013354
0.00133398
0.00132049
0.00133365
0.00136084
0.00137607
0.00139419
0.00142559
0.00146083
0.00149317
0.00152581
0.00155439
0.00158009
0.00160753
0.0016366
0.00166651
0.00169866
0.00173438
0.0017674
0.00180125
0.00183542
0.00187256
0.00190791
0.00194409
0.00198075
0.00201747
0.00205546
0.00209182
0.0021308
0.00216784
0.00220708
0.00224574
0.00228435
0.00232531
0.00236301
0.00240564
0.00244379
0.002486
0.00252728
0.00256669