/*--------------------------------*- C++ -*----------------------------------*\
| =========                 |                                                 |
| \\      /  F ield         | OpenFOAM: The Open Source CFD Toolbox           |
|  \\    /   O peration     | Version:  3.0.1                                 |
|   \\  /    A nd           | Web:      www.OpenFOAM.org                      |
|    \\/     M anipulation  |                                                 |
\*---------------------------------------------------------------------------*/
FoamFile
{
    version     2.0;
    format      ascii;
    class       surfaceScalarField;
    location    "0.4";
    object      phi;
}
// * * * * * * * * * * * * * * * * * * * * * * * * * * * * * * * * * * * * * //

dimensions      [0 3 -1 0 0 0 0];

internalField   nonuniform List<scalar> 
19000
(
1.17238e-06
-1.04776e-06
1.14206e-06
9.78941e-07
1.16628e-06
-2.9983e-07
1.21118e-06
-2.18833e-07
1.23672e-06
-2.11222e-07
1.21779e-06
3.17671e-07
1.21889e-06
3.49876e-07
1.19381e-06
3.04317e-07
1.1907e-06
-1.37068e-07
1.20667e-06
3.05243e-08
1.21691e-06
-3.94123e-07
1.20464e-06
1.57349e-08
1.20926e-06
-1.05596e-07
1.20328e-06
1.80421e-07
1.20633e-06
4.92054e-08
1.19482e-06
1.34695e-07
1.19577e-06
-1.17483e-08
1.18406e-06
3.6078e-08
1.18056e-06
-1.31466e-08
2.26896e-08
1.15313e-06
1.23294e-06
-1.05644e-06
1.20628e-06
1.0056e-06
1.22968e-06
-3.2323e-07
1.27263e-06
-2.61785e-07
1.29859e-06
-2.3718e-07
1.28342e-06
3.32837e-07
1.27931e-06
3.53984e-07
1.26046e-06
3.23174e-07
1.25265e-06
-1.29263e-07
1.27061e-06
1.25658e-08
1.27811e-06
-4.0162e-07
1.27147e-06
2.23724e-08
1.26948e-06
-1.03603e-07
1.27282e-06
1.77079e-07
1.2637e-06
5.83285e-08
1.26731e-06
1.31086e-07
1.24914e-06
6.41596e-09
1.25748e-06
2.77413e-08
1.22808e-06
1.62484e-08
1.41044e-08
1.23667e-06
1.29425e-06
-1.06791e-06
1.28057e-06
1.01929e-06
1.29517e-06
-3.37835e-07
1.33706e-06
-3.03669e-07
1.36198e-06
-2.62107e-07
1.35658e-06
3.38239e-07
1.3451e-06
3.6546e-07
1.33315e-06
3.35131e-07
1.31735e-06
-1.13468e-07
1.33483e-06
-4.91447e-09
1.33563e-06
-4.02414e-07
1.33832e-06
1.96801e-08
1.32942e-06
-9.47053e-08
1.33878e-06
1.6772e-07
1.32463e-06
7.24754e-08
1.32937e-06
1.2635e-07
1.3096e-06
2.61872e-08
1.312e-06
2.53371e-08
1.29144e-06
3.68081e-08
2.23444e-08
1.2832e-06
1.35688e-06
-1.08069e-06
1.35749e-06
1.01868e-06
1.35927e-06
-3.39613e-07
1.39884e-06
-3.43239e-07
1.42339e-06
-2.86658e-07
1.42994e-06
3.31685e-07
1.41446e-06
3.8094e-07
1.40408e-06
3.45515e-07
1.38284e-06
-9.22289e-08
1.39399e-06
-1.60614e-08
1.39003e-06
-3.98459e-07
1.39778e-06
1.19318e-08
1.38997e-06
-8.68913e-08
1.39855e-06
1.59132e-07
1.38759e-06
8.34421e-08
1.3878e-06
1.2614e-07
1.37153e-06
4.24534e-08
1.3681e-06
2.87651e-08
1.3526e-06
5.23093e-08
3.48931e-08
1.34005e-06
1.42079e-06
-1.09312e-06
1.43308e-06
1.00639e-06
1.42177e-06
-3.28306e-07
1.456e-06
-3.77473e-07
1.4812e-06
-3.11852e-07
1.49807e-06
3.14811e-07
1.48372e-06
3.95293e-07
1.47068e-06
3.58552e-07
1.44781e-06
-6.93553e-08
1.45019e-06
-1.84432e-08
1.44352e-06
-3.91792e-07
1.45373e-06
1.7269e-09
1.45035e-06
-8.35186e-08
1.45831e-06
1.51173e-07
1.4503e-06
9.14536e-08
1.44859e-06
1.27848e-07
1.43361e-06
5.74323e-08
1.42827e-06
3.41047e-08
1.41408e-06
6.65052e-08
4.83475e-08
1.40062e-06
1.48631e-06
-1.10376e-06
1.50552e-06
9.87185e-07
1.48487e-06
-3.07659e-07
1.51069e-06
-4.0329e-07
1.5362e-06
-3.37364e-07
1.55965e-06
2.91363e-07
1.54989e-06
4.05051e-07
1.53419e-06
3.74252e-07
1.51214e-06
-4.72995e-08
1.50767e-06
-1.39786e-08
1.49879e-06
-3.82909e-07
1.51025e-06
-9.73176e-09
1.5104e-06
-8.3669e-08
1.51923e-06
1.42342e-07
1.5127e-06
9.79825e-08
1.51103e-06
1.29524e-07
1.49686e-06
7.15946e-08
1.49079e-06
4.01811e-08
1.47802e-06
7.92709e-08
6.25879e-08
1.46378e-06
1.55386e-06
-1.1114e-06
1.57536e-06
9.65689e-07
1.5511e-06
-2.83405e-07
1.56707e-06
-4.19254e-07
1.59072e-06
-3.61016e-07
1.61659e-06
2.65495e-07
1.61226e-06
4.0938e-07
1.59694e-06
3.89569e-07
1.57697e-06
-2.73241e-08
1.56935e-06
-6.36019e-09
1.55834e-06
-3.71902e-07
1.56958e-06
-2.09674e-08
1.57097e-06
-8.50598e-08
1.58082e-06
1.32484e-07
1.57533e-06
1.0348e-07
1.57457e-06
1.30279e-07
1.56189e-06
8.42792e-08
1.55554e-06
4.65243e-08
1.54483e-06
8.99879e-08
7.71848e-08
1.53023e-06
1.62385e-06
-1.11512e-06
1.6446e-06
9.44935e-07
1.62192e-06
-2.60717e-07
1.62871e-06
-4.26051e-07
1.64755e-06
-3.79854e-07
1.67228e-06
2.40766e-07
1.67262e-06
4.09039e-07
1.66111e-06
4.01079e-07
1.64408e-06
-1.02928e-08
1.63649e-06
1.23024e-09
1.62376e-06
-3.59174e-07
1.63329e-06
-3.05012e-08
1.63379e-06
-8.55572e-08
1.64395e-06
1.22327e-07
1.63948e-06
1.07946e-07
1.64016e-06
1.29602e-07
1.62968e-06
9.47628e-08
1.62337e-06
5.28313e-08
1.6151e-06
9.8256e-08
9.15152e-08
1.60077e-06
1.6968e-06
-1.11435e-06
1.71568e-06
9.2605e-07
1.69762e-06
-2.42652e-07
1.69738e-06
-4.25816e-07
1.70928e-06
-3.91757e-07
1.7305e-06
2.19546e-07
1.73431e-06
4.0523e-07
1.72864e-06
4.06751e-07
1.71511e-06
3.24199e-09
1.70938e-06
6.95783e-09
1.69551e-06
-3.45303e-07
1.70262e-06
-3.76102e-08
1.70094e-06
-8.38792e-08
1.71062e-06
1.1265e-07
1.70717e-06
1.11393e-07
1.70936e-06
1.27407e-07
1.7015e-06
1.02628e-07
1.69534e-06
5.89913e-08
1.68953e-06
1.04063e-07
1.05e-07
1.67605e-06
1.77342e-06
-1.10904e-06
1.79068e-06
9.08786e-07
1.77795e-06
-2.29923e-07
1.77321e-06
-4.2107e-07
1.77773e-06
-3.96281e-07
1.79454e-06
2.02732e-07
1.80069e-06
3.99082e-07
1.80112e-06
4.0632e-07
1.79108e-06
1.3282e-08
1.7878e-06
1.02434e-08
1.77328e-06
-3.30783e-07
1.77811e-06
-4.24427e-08
1.77401e-06
-7.97758e-08
1.78278e-06
1.03877e-07
1.78023e-06
1.13939e-07
1.78356e-06
1.24075e-07
1.77831e-06
1.07885e-07
1.77225e-06
6.50529e-08
1.76851e-06
1.07803e-07
1.17175e-07
1.75633e-06
1.85444e-06
-1.09973e-06
1.87095e-06
8.92274e-07
1.86263e-06
-2.21597e-07
1.8555e-06
-4.13939e-07
1.85366e-06
-3.94442e-07
1.86648e-06
1.89906e-07
1.87404e-06
3.9153e-07
1.87958e-06
4.00776e-07
1.87245e-06
2.041e-08
1.87137e-06
1.13272e-08
1.85651e-06
-3.15924e-07
1.8597e-06
-4.56329e-08
1.85366e-06
-7.37401e-08
1.86148e-06
9.60607e-08
1.85969e-06
1.15729e-07
1.8635e-06
1.20266e-07
1.86047e-06
1.10911e-07
1.85438e-06
7.11492e-08
1.85208e-06
1.10104e-07
1.2771e-07
1.84154e-06
1.94039e-06
-1.08729e-06
1.95706e-06
8.75609e-07
1.95151e-06
-2.16049e-07
1.94344e-06
-4.05872e-07
1.93693e-06
-3.87927e-07
1.94694e-06
1.7989e-07
1.95518e-06
3.83289e-07
1.96436e-06
3.91596e-07
1.95924e-06
2.5531e-08
1.95977e-06
1.08022e-08
1.94473e-06
-3.0089e-07
1.94695e-06
-4.78553e-08
1.93976e-06
-6.65472e-08
1.94675e-06
8.90691e-08
1.94563e-06
1.16852e-07
1.94926e-06
1.16634e-07
1.94791e-06
1.12262e-07
1.9417e-06
7.73572e-08
1.94015e-06
1.11658e-07
1.36412e-07
1.93145e-06
2.03148e-06
-1.07258e-06
2.04895e-06
8.58136e-07
2.04462e-06
-2.11715e-07
2.03645e-06
-3.97708e-07
2.02687e-06
-3.78345e-07
2.03538e-06
1.71383e-07
2.04382e-06
3.74847e-07
2.05529e-06
3.80129e-07
2.05128e-06
2.9536e-08
2.05281e-06
9.2779e-09
2.03769e-06
-2.85769e-07
2.0394e-06
-4.95661e-08
2.03176e-06
-5.89045e-08
2.03806e-06
8.27688e-08
2.03758e-06
1.1733e-07
2.04059e-06
1.13621e-07
2.04034e-06
1.1251e-07
2.03408e-06
8.36252e-08
2.03268e-06
1.13054e-07
1.43229e-07
2.02586e-06
2.1277e-06
-1.05627e-06
2.14634e-06
8.39494e-07
2.1421e-06
-2.0747e-07
2.13427e-06
-3.8988e-07
2.12277e-06
-3.66843e-07
2.13078e-06
1.63368e-07
2.13913e-06
3.66496e-07
2.15195e-06
3.67314e-07
2.1484e-06
3.30792e-08
2.15046e-06
7.22493e-09
2.13533e-06
-2.70645e-07
2.13672e-06
-5.09553e-08
2.12913e-06
-5.13133e-08
2.13479e-06
7.7108e-08
2.13496e-06
1.17164e-07
2.13718e-06
1.11399e-07
2.13754e-06
1.12153e-07
2.13138e-06
8.97853e-08
2.12975e-06
1.14677e-07
1.48249e-07
2.12473e-06
2.22898e-06
-1.03877e-06
2.24895e-06
8.19523e-07
2.24414e-06
-2.02654e-07
2.23686e-06
-3.82599e-07
2.22408e-06
-3.54071e-07
2.23223e-06
1.5522e-07
2.24035e-06
3.5838e-07
2.25397e-06
3.53687e-07
2.25053e-06
3.65243e-08
2.25279e-06
4.96132e-09
2.23777e-06
-2.55623e-07
2.23883e-06
-5.2014e-08
2.2316e-06
-4.40837e-08
2.23661e-06
7.20999e-08
2.23739e-06
1.16384e-07
2.23888e-06
1.09904e-07
2.23942e-06
1.11619e-07
2.23359e-06
9.561e-08
2.23158e-06
1.16687e-07
1.51679e-07
2.22815e-06
2.33534e-06
-1.02023e-06
2.35669e-06
7.98169e-07
2.35098e-06
-1.96942e-07
2.34435e-06
-3.7597e-07
2.3306e-06
-3.40326e-07
2.3392e-06
1.46625e-07
2.34702e-06
3.50553e-07
2.3612e-06
3.39516e-07
2.35772e-06
4.00029e-08
2.35997e-06
2.70411e-09
2.34519e-06
-2.40838e-07
2.3458e-06
-5.26284e-08
2.33911e-06
-3.73932e-08
2.34345e-06
6.77628e-08
2.34474e-06
1.1509e-07
2.34571e-06
1.08938e-07
2.34609e-06
1.11239e-07
2.3408e-06
1.00898e-07
2.33842e-06
1.19071e-07
1.53799e-07
2.3363e-06
2.44687e-06
-1.0007e-06
2.46963e-06
7.75412e-07
2.46288e-06
-1.90188e-07
2.45695e-06
-3.70044e-07
2.44234e-06
-3.25719e-07
2.45151e-06
1.37456e-07
2.45906e-06
3.43008e-07
2.47363e-06
3.24945e-07
2.47013e-06
4.34999e-08
2.47221e-06
6.24573e-10
2.45781e-06
-2.26441e-07
2.45785e-06
-5.26636e-08
2.45178e-06
-3.13192e-08
2.45547e-06
6.40631e-08
2.45712e-06
1.13446e-07
2.45778e-06
1.08272e-07
2.45782e-06
1.11201e-07
2.45315e-06
1.05566e-07
2.45052e-06
1.21701e-07
1.54905e-07
2.44942e-06
2.56379e-06
-9.80201e-07
2.58797e-06
7.51235e-07
2.58011e-06
-1.82329e-07
2.57491e-06
-3.6485e-07
2.55948e-06
-3.10287e-07
2.56925e-06
1.27687e-07
2.57656e-06
3.357e-07
2.59142e-06
3.10088e-07
2.588e-06
4.69174e-08
2.58974e-06
-1.11736e-09
2.57588e-06
-2.12584e-07
2.57524e-06
-5.20188e-08
2.56977e-06
-2.5849e-08
2.57294e-06
6.08943e-08
2.57472e-06
1.11662e-07
2.57527e-06
1.07727e-07
2.57495e-06
1.11521e-07
2.57081e-06
1.09702e-07
2.56815e-06
1.24363e-07
1.55276e-07
2.56778e-06
2.68633e-06
-9.58705e-07
2.71194e-06
7.25629e-07
2.70295e-06
-1.73338e-07
2.6985e-06
-3.60402e-07
2.68227e-06
-2.94055e-07
2.69261e-06
1.17347e-07
2.69975e-06
3.28555e-07
2.71477e-06
2.95074e-07
2.71157e-06
5.01135e-08
2.71282e-06
-2.36189e-09
2.69964e-06
-1.99406e-07
2.69827e-06
-5.06553e-08
2.69331e-06
-2.08875e-08
2.69611e-06
5.80935e-08
2.69782e-06
1.09951e-07
2.69835e-06
1.072e-07
2.6978e-06
1.12072e-07
2.69402e-06
1.13482e-07
2.69153e-06
1.26853e-07
1.55126e-07
2.69168e-06
2.81477e-06
-9.36206e-07
2.84181e-06
6.98589e-07
2.83168e-06
-1.6321e-07
2.82798e-06
-3.56699e-07
2.81099e-06
-2.77068e-07
2.82183e-06
1.06512e-07
2.82891e-06
3.21472e-07
2.84392e-06
2.80059e-07
2.84112e-06
5.29207e-08
2.84171e-06
-2.95551e-09
2.82931e-06
-1.8701e-07
2.82727e-06
-4.86162e-08
2.82265e-06
-1.62678e-08
2.82527e-06
5.54819e-08
2.82675e-06
1.08468e-07
2.82724e-06
1.06711e-07
2.82666e-06
1.12653e-07
2.82309e-06
1.17052e-07
2.82087e-06
1.29073e-07
1.54576e-07
2.82142e-06
2.94939e-06
-9.12695e-07
2.97785e-06
6.70127e-07
2.9666e-06
-1.51959e-07
2.96362e-06
-3.53723e-07
2.94595e-06
-2.59399e-07
2.95717e-06
9.529e-08
2.96433e-06
3.14321e-07
2.97915e-06
2.65235e-07
2.97691e-06
5.51557e-08
2.97673e-06
-2.77249e-09
2.96515e-06
-1.75428e-07
2.96256e-06
-4.60311e-08
2.95807e-06
-1.1777e-08
2.96064e-06
5.29161e-08
2.96184e-06
1.07265e-07
2.96217e-06
1.06384e-07
2.96176e-06
1.13064e-07
2.95837e-06
1.20437e-07
2.9564e-06
1.31047e-07
1.53673e-07
2.9573e-06
3.09048e-06
-8.88174e-07
3.12035e-06
6.40266e-07
3.10801e-06
-1.3962e-07
3.10572e-06
-3.51439e-07
3.08748e-06
-2.41152e-07
3.09894e-06
8.3826e-08
3.10631e-06
3.06946e-07
3.12073e-06
2.50819e-07
3.11925e-06
5.66326e-08
3.11821e-06
-1.73126e-09
3.10739e-06
-1.64609e-07
3.10447e-06
-4.31074e-08
3.09987e-06
-7.17721e-09
3.10248e-06
5.03042e-08
3.10345e-06
1.06301e-07
3.10342e-06
1.06406e-07
3.10331e-06
1.13175e-07
3.10023e-06
1.23518e-07
3.09839e-06
1.32888e-07
1.52437e-07
3.09963e-06
3.23838e-06
-8.62647e-07
3.2696e-06
6.09048e-07
3.25623e-06
-1.26246e-07
3.25457e-06
-3.49787e-07
3.23589e-06
-2.22465e-07
3.24742e-06
7.2297e-08
3.2552e-06
2.9916e-07
3.26897e-06
2.37049e-07
3.26843e-06
5.7177e-08
3.2665e-06
1.93688e-10
3.25632e-06
-1.54427e-07
3.2533e-06
-4.00879e-08
3.24839e-06
-2.26072e-09
3.25105e-06
4.76421e-08
3.25189e-06
1.05455e-07
3.25134e-06
1.06956e-07
3.25155e-06
1.12968e-07
3.24899e-06
1.26076e-07
3.24717e-06
1.34709e-07
1.50918e-07
3.24869e-06
3.39341e-06
-8.36128e-07
3.42593e-06
5.76532e-07
3.4116e-06
-1.11914e-07
3.41049e-06
-3.48681e-07
3.39153e-06
-2.03505e-07
3.40292e-06
6.09094e-08
3.41132e-06
2.90755e-07
3.42421e-06
2.24163e-07
3.42473e-06
5.66557e-08
3.42197e-06
2.95669e-09
3.41223e-06
-1.44693e-07
3.40936e-06
-3.72168e-08
3.40399e-06
3.11047e-09
3.4066e-06
4.50326e-08
3.4075e-06
1.04553e-07
3.40635e-06
1.08109e-07
3.40674e-06
1.12575e-07
3.40494e-06
1.27881e-07
3.40312e-06
1.36532e-07
1.49242e-07
3.40479e-06
3.55592e-06
-8.0864e-07
3.58966e-06
5.42796e-07
3.57447e-06
-9.67235e-08
3.5738e-06
-3.48012e-07
3.55476e-06
-1.84468e-07
3.56578e-06
4.98962e-08
3.57502e-06
2.81512e-07
3.58679e-06
2.12395e-07
3.58844e-06
5.50079e-08
3.58497e-06
6.41918e-09
3.57546e-06
-1.35177e-07
3.57295e-06
-3.47049e-08
3.56708e-06
8.97815e-09
3.56943e-06
4.26835e-08
3.5706e-06
1.0338e-07
3.56887e-06
1.09836e-07
3.56925e-06
1.12199e-07
3.56833e-06
1.28794e-07
3.56662e-06
1.38247e-07
1.47605e-07
3.56826e-06
3.72628e-06
-7.80214e-07
3.76114e-06
5.07937e-07
3.74521e-06
-8.07967e-08
3.74485e-06
-3.47651e-07
3.72596e-06
-1.65576e-07
3.73634e-06
3.95112e-08
3.74665e-06
2.71208e-07
3.75709e-06
2.0195e-07
3.75985e-06
5.22462e-08
3.7559e-06
1.03691e-08
3.74636e-06
-1.25634e-07
3.74434e-06
-3.26848e-08
3.73805e-06
1.52647e-08
3.73986e-06
4.08753e-08
3.7415e-06
1.01739e-07
3.73933e-06
1.12013e-07
3.73947e-06
1.12057e-07
3.73945e-06
1.28807e-07
3.73807e-06
1.39635e-07
1.46205e-07
3.73947e-06
3.90486e-06
-7.50891e-07
3.94073e-06
4.72075e-07
3.92421e-06
-6.42752e-08
3.92401e-06
-3.47451e-07
3.9055e-06
-1.47068e-07
3.91499e-06
3.0018e-08
3.92656e-06
2.59641e-07
3.93555e-06
1.92955e-07
3.93931e-06
4.84836e-08
3.93514e-06
1.45459e-08
3.92534e-06
-1.15839e-07
3.92386e-06
-3.11994e-08
3.91732e-06
2.17973e-08
3.9183e-06
3.99015e-08
3.92051e-06
9.95243e-08
3.91811e-06
1.14419e-07
3.91785e-06
1.12316e-07
3.9186e-06
1.28056e-07
3.91781e-06
1.40426e-07
1.45152e-07
3.91886e-06
4.09208e-06
-7.2072e-07
4.12881e-06
4.35345e-07
4.11185e-06
-4.73185e-08
4.11166e-06
-3.47253e-07
4.09378e-06
-1.29193e-07
4.10212e-06
2.16775e-08
4.11508e-06
2.4668e-07
4.12262e-06
1.85414e-07
4.12718e-06
4.39313e-08
4.12305e-06
1.86667e-08
4.11282e-06
-1.05606e-07
4.11184e-06
-3.02155e-08
4.10528e-06
2.8351e-08
4.10516e-06
4.00244e-08
4.10795e-06
9.67369e-08
4.10563e-06
1.16741e-07
4.10486e-06
1.13078e-07
4.10613e-06
1.26792e-07
4.10617e-06
1.40384e-07
1.44395e-07
4.10693e-06
4.28834e-06
-6.89761e-07
4.32578e-06
3.97905e-07
4.30857e-06
-3.00999e-08
4.30821e-06
-3.46897e-07
4.29122e-06
-1.12204e-07
4.29816e-06
1.47329e-08
4.31258e-06
2.32261e-07
4.31876e-06
1.79234e-07
4.32382e-06
3.88705e-08
4.32006e-06
2.24348e-08
4.30923e-06
-9.47786e-08
4.30866e-06
-2.96429e-08
4.30233e-06
3.46721e-08
4.30091e-06
4.14515e-08
4.30416e-06
9.34804e-08
4.30227e-06
1.18631e-07
4.301e-06
1.14348e-07
4.30247e-06
1.25327e-07
4.30344e-06
1.39412e-07
1.43705e-07
4.30413e-06
4.4941e-06
-6.58084e-07
4.53208e-06
3.59926e-07
4.51478e-06
-1.28012e-08
4.5141e-06
-3.46219e-07
4.49824e-06
-9.6347e-08
4.50359e-06
9.38168e-09
4.51945e-06
2.16406e-07
4.52443e-06
1.74249e-07
4.52966e-06
3.36401e-08
4.52657e-06
2.55333e-08
4.51501e-06
-8.32243e-08
4.51471e-06
-2.93422e-08
4.50888e-06
4.04994e-08
4.50607e-06
4.42651e-08
4.50956e-06
8.99905e-08
4.50842e-06
1.19774e-07
4.50677e-06
1.15998e-07
4.50815e-06
1.23938e-07
4.50995e-06
1.37616e-07
1.42754e-07
4.5109e-06
4.7098e-06
-6.25766e-07
4.74813e-06
3.21595e-07
4.73093e-06
4.39328e-09
4.72978e-06
-3.45066e-07
4.7153e-06
-8.1862e-08
4.71889e-06
5.7839e-09
4.73609e-06
1.99209e-07
4.74011e-06
1.70227e-07
4.74513e-06
2.86268e-08
4.74302e-06
2.76361e-08
4.73064e-06
-7.08422e-08
4.73039e-06
-2.90922e-08
4.72539e-06
4.54981e-08
4.72123e-06
4.8424e-08
4.72459e-06
8.6629e-08
4.72441e-06
1.19964e-07
4.72261e-06
1.17793e-07
4.72376e-06
1.22784e-07
4.72611e-06
1.35275e-07
1.41262e-07
4.7276e-06
4.93593e-06
-5.92895e-07
4.97441e-06
2.8311e-07
4.9575e-06
2.13013e-08
4.95573e-06
-3.43294e-07
4.94285e-06
-6.89801e-08
4.94456e-06
4.06999e-09
4.96295e-06
1.80819e-07
4.96629e-06
1.66885e-07
4.97065e-06
2.42671e-08
4.96988e-06
2.84075e-08
4.95663e-06
-5.75944e-08
4.9561e-06
-2.85548e-08
4.95229e-06
4.93045e-08
4.94698e-06
5.37331e-08
4.94978e-06
8.38278e-08
4.95063e-06
1.19114e-07
4.94897e-06
1.19457e-07
4.94985e-06
1.21903e-07
4.95246e-06
1.3267e-07
1.39126e-07
4.95459e-06
5.17299e-06
-5.59568e-07
5.21143e-06
2.44673e-07
5.19498e-06
3.77461e-08
5.19245e-06
-3.40761e-07
5.18138e-06
-5.79143e-08
5.18112e-06
4.32998e-09
5.2005e-06
1.61446e-07
5.2035e-06
1.63878e-07
5.20672e-06
2.10482e-08
5.20758e-06
2.75527e-08
5.19359e-06
-4.36064e-08
5.19228e-06
-2.72483e-08
5.18995e-06
5.16362e-08
5.1839e-06
5.9786e-08
5.18573e-06
8.19932e-08
5.18752e-06
1.17323e-07
5.18627e-06
1.2071e-07
5.18692e-06
1.21255e-07
5.18959e-06
1.29994e-07
1.36412e-07
5.19231e-06
5.42151e-06
-5.2589e-07
5.45969e-06
2.06494e-07
5.44388e-06
5.35553e-08
5.44045e-06
-3.37329e-07
5.43141e-06
-4.88717e-08
5.42911e-06
6.62827e-09
5.44921e-06
1.41346e-07
5.45229e-06
1.60793e-07
5.45386e-06
1.94848e-08
5.45648e-06
2.49318e-08
5.44224e-06
-2.93744e-08
5.4394e-06
-2.44038e-08
5.43872e-06
5.23161e-08
5.43254e-06
6.59682e-08
5.4331e-06
8.14273e-08
5.43557e-06
1.14857e-07
5.43497e-06
1.21315e-07
5.43547e-06
1.20752e-07
5.4381e-06
1.27367e-07
1.33243e-07
5.44126e-06
5.68205e-06
-4.91977e-07
5.71976e-06
1.68779e-07
5.70475e-06
6.85635e-08
5.70026e-06
-3.32836e-07
5.69345e-06
-4.20657e-08
5.68908e-06
1.09971e-08
5.70958e-06
1.20855e-07
5.71324e-06
1.57132e-07
5.71266e-06
2.00595e-08
5.71689e-06
2.07017e-08
5.70321e-06
-1.56889e-08
5.69818e-06
-1.93745e-08
5.69893e-06
5.15633e-08
5.69339e-06
7.1508e-08
5.69262e-06
8.22001e-08
5.69534e-06
1.12138e-07
5.69552e-06
1.21136e-07
5.69605e-06
1.2022e-07
5.69851e-06
1.24909e-07
1.29736e-07
5.70201e-06
5.95517e-06
-4.57953e-07
5.99221e-06
1.31739e-07
5.97818e-06
8.25936e-08
5.97242e-06
-3.27077e-07
5.96809e-06
-3.77369e-08
5.96167e-06
1.74146e-08
5.98211e-06
1.00418e-07
5.98692e-06
1.52327e-07
5.98388e-06
2.30985e-08
5.98921e-06
1.53655e-08
5.97698e-06
-3.45915e-09
5.96959e-06
-1.19849e-08
5.97108e-06
5.00786e-08
5.9668e-06
7.57814e-08
5.965e-06
8.40026e-08
5.96748e-06
1.09658e-07
5.9684e-06
1.20215e-07
5.9692e-06
1.19419e-07
5.97144e-06
1.22668e-07
1.26068e-07
5.97511e-06
6.24149e-06
-4.23957e-07
6.27764e-06
9.55951e-08
6.26477e-06
9.54576e-08
6.25748e-06
-3.19786e-07
6.25589e-06
-3.61449e-08
6.24755e-06
2.57518e-08
6.26733e-06
8.06346e-08
6.27387e-06
1.4579e-07
6.26831e-06
2.86563e-08
6.27392e-06
9.76041e-09
6.26402e-06
6.43686e-09
6.25454e-06
-2.50227e-09
6.25582e-06
4.87978e-08
6.25317e-06
7.84311e-08
6.25086e-06
8.63134e-08
6.25279e-06
1.07732e-07
6.2542e-06
1.18798e-07
6.25544e-06
1.18188e-07
6.2576e-06
1.20508e-07
1.22459e-07
6.2612e-06
6.54165e-06
-3.90136e-07
6.57666e-06
6.05838e-08
6.56517e-06
1.06946e-07
6.55603e-06
-3.10643e-07
6.55741e-06
-3.75281e-08
6.54745e-06
3.57137e-08
6.56583e-06
6.22562e-08
6.57457e-06
1.37046e-07
6.56682e-06
3.64049e-08
6.57161e-06
4.97665e-09
6.56467e-06
1.33786e-08
6.55388e-06
8.28361e-09
6.55398e-06
4.86992e-08
6.55293e-06
7.94794e-08
6.55072e-06
8.8524e-08
6.55204e-06
1.06414e-07
6.55363e-06
1.17205e-07
6.55526e-06
1.16556e-07
6.55761e-06
1.18164e-07
1.19058e-07
6.56101e-06
6.85631e-06
-3.56655e-07
6.88992e-06
2.69723e-08
6.88005e-06
1.16814e-07
6.86872e-06
-2.99308e-07
6.87321e-06
-4.20172e-08
6.86215e-06
4.6774e-08
6.87823e-06
4.61725e-08
6.88945e-06
1.25823e-07
6.88024e-06
4.56217e-08
6.88304e-06
2.16775e-09
6.8793e-06
1.71254e-08
6.8682e-06
1.93786e-08
6.86658e-06
5.03216e-08
6.86666e-06
7.94003e-08
6.86507e-06
9.01165e-08
6.86595e-06
1.0553e-07
6.86749e-06
1.15669e-07
6.86931e-06
1.14734e-07
6.87202e-06
1.1545e-07
1.15804e-07
6.87528e-06
7.18618e-06
-3.23696e-07
7.21809e-06
-4.93991e-09
7.21012e-06
1.24782e-07
7.19625e-06
-2.85437e-07
7.20382e-06
-4.95852e-08
7.19241e-06
5.81843e-08
7.20528e-06
3.33048e-08
7.219e-06
1.12102e-07
7.20929e-06
5.53322e-08
7.20926e-06
2.19509e-09
7.2083e-06
1.80886e-08
7.19808e-06
2.96003e-08
7.19457e-06
5.38263e-08
7.19509e-06
7.88825e-08
7.19442e-06
9.07805e-08
7.19517e-06
1.04788e-07
7.19658e-06
1.14252e-07
7.19837e-06
1.12943e-07
7.20136e-06
1.12466e-07
1.12463e-07
7.2047e-06
7.53199e-06
-2.91456e-07
7.56186e-06
-3.48164e-08
7.55613e-06
1.30516e-07
7.53944e-06
-2.68751e-07
7.5498e-06
-5.99391e-08
7.539e-06
6.89841e-08
7.5479e-06
2.44001e-08
7.56369e-06
9.63095e-08
7.55469e-06
6.43342e-08
7.55133e-06
5.55875e-09
7.55228e-06
1.71335e-08
7.54393e-06
3.79574e-08
7.53885e-06
5.89052e-08
7.53908e-06
7.86453e-08
7.53939e-06
9.04768e-08
7.5403e-06
1.03878e-07
7.54166e-06
1.12886e-07
7.5433e-06
1.11305e-07
7.54633e-06
1.0944e-07
1.08926e-07
7.54986e-06
7.89451e-06
-2.60152e-07
7.92198e-06
-6.22847e-08
7.91887e-06
1.33624e-07
7.89921e-06
-2.49091e-07
7.9117e-06
-7.24268e-08
7.90264e-06
7.80426e-08
7.90715e-06
1.98919e-08
7.92418e-06
7.92782e-08
7.91696e-06
7.15502e-08
7.91041e-06
1.21133e-08
7.91203e-06
1.55129e-08
7.90619e-06
4.37944e-08
7.90022e-06
6.48741e-08
7.8996e-06
7.9262e-08
7.9006e-06
8.94779e-08
7.90206e-06
1.02424e-07
7.90345e-06
1.11493e-07
7.90491e-06
1.09842e-07
7.90786e-06
1.06497e-07
1.05319e-07
7.91146e-06
8.27454e-06
-2.30015e-07
8.29921e-06
-8.69506e-08
8.29911e-06
1.33727e-07
8.27649e-06
-2.26478e-07
8.2902e-06
-8.61288e-08
8.284e-06
8.42369e-08
8.28408e-06
1.9811e-08
8.30122e-06
6.21377e-08
8.29661e-06
7.61598e-08
8.28752e-06
2.121e-08
8.28847e-06
1.4562e-08
8.28545e-06
4.68131e-08
8.27946e-06
7.08613e-08
8.27763e-06
8.10977e-08
8.27891e-06
8.81967e-08
8.28109e-06
1.00238e-07
8.28273e-06
1.09858e-07
8.28404e-06
1.08529e-07
8.28673e-06
1.03805e-07
1.01656e-07
8.2904e-06
8.67293e-06
-2.0128e-07
8.69441e-06
-1.08432e-07
8.69758e-06
1.30554e-07
8.6723e-06
-2.01194e-07
8.68609e-06
-9.99234e-08
8.68368e-06
8.66456e-08
8.67977e-06
2.37225e-08
8.69578e-06
4.61286e-08
8.69422e-06
7.77175e-08
8.68348e-06
3.19561e-08
8.6828e-06
1.52381e-08
8.68236e-06
4.72517e-08
8.67721e-06
7.60122e-08
8.67423e-06
8.40838e-08
8.67523e-06
8.71874e-08
8.67806e-06
9.74093e-08
8.68031e-06
1.07612e-07
8.68153e-06
1.07314e-07
8.68386e-06
1.01471e-07
9.8016e-08
8.6875e-06
9.09052e-06
-1.74182e-07
9.10847e-06
-1.26376e-07
9.11503e-06
1.23992e-07
9.08765e-06
-1.73813e-07
9.10033e-06
-1.12609e-07
9.10216e-06
8.48158e-08
9.09523e-06
3.06508e-08
9.1089e-06
3.24656e-08
9.11039e-06
7.62235e-08
9.09907e-06
4.3272e-08
9.09627e-06
1.80471e-08
9.0976e-06
4.59204e-08
9.09414e-06
7.94647e-08
9.09044e-06
8.77893e-08
9.09064e-06
8.69887e-08
9.09375e-06
9.43008e-08
9.0969e-06
1.04457e-07
9.09828e-06
1.0593e-07
9.10019e-06
9.95697e-08
9.45836e-08
9.10362e-06
9.52822e-06
-1.48941e-07
9.54234e-06
-1.40501e-07
9.5522e-06
1.14131e-07
9.52361e-06
-1.45216e-07
9.53396e-06
-1.2296e-07
9.53999e-06
7.8781e-08
9.53129e-06
3.93524e-08
9.54176e-06
2.2002e-08
9.54597e-06
7.20124e-08
9.53502e-06
5.42205e-08
9.52991e-06
2.31606e-08
9.53216e-06
4.36675e-08
9.53096e-06
8.06675e-08
9.52708e-06
9.16641e-08
9.52625e-06
8.78163e-08
9.52924e-06
9.13101e-08
9.53309e-06
1.00608e-07
9.53519e-06
1.03831e-07
9.53666e-06
9.81058e-08
9.15141e-08
9.53973e-06
9.98695e-06
-1.25753e-07
9.99707e-06
-1.5062e-07
1.00099e-05
1.01272e-07
9.98116e-06
-1.16447e-07
9.9881e-06
-1.29906e-07
9.99793e-06
6.89513e-08
9.98877e-06
4.85094e-08
9.99562e-06
1.51595e-08
1.00018e-05
6.57841e-08
9.99218e-06
6.38841e-08
9.9849e-06
3.04462e-08
9.98715e-06
4.14101e-08
9.98827e-06
7.95479e-08
9.98499e-06
9.49426e-08
9.98326e-06
8.9552e-08
9.98563e-06
8.894e-08
9.98986e-06
9.63768e-08
9.99288e-06
1.00811e-07
9.99436e-06
9.66238e-08
8.89472e-08
9.99693e-06
1.04677e-05
-1.04776e-07
1.04737e-05
-1.56669e-07
1.04891e-05
8.59183e-08
1.04612e-05
-8.85778e-08
1.0464e-05
-1.32681e-07
1.04769e-05
5.6064e-08
1.04685e-05
5.68668e-08
1.04717e-05
1.20081e-08
1.04792e-05
5.82283e-08
1.04715e-05
7.16176e-08
1.04625e-05
3.9445e-08
1.04637e-05
4.02256e-08
1.04669e-05
7.63144e-08
1.0465e-05
9.68054e-08
1.04626e-05
9.19433e-08
1.04641e-05
8.74582e-08
1.04684e-05
9.21056e-08
1.04723e-05
9.69406e-08
1.04743e-05
9.45693e-08
8.69231e-08
1.04763e-05
1.09714e-05
-8.61205e-08
1.09734e-05
-1.58712e-07
1.09906e-05
6.87109e-08
1.09647e-05
-6.2645e-08
1.09629e-05
-1.30893e-07
1.09779e-05
4.10911e-08
1.09713e-05
6.34614e-08
1.09711e-05
1.22194e-08
1.09792e-05
5.00856e-08
1.09739e-05
7.69248e-08
1.09638e-05
4.9524e-08
1.09631e-05
4.09016e-08
1.09678e-05
7.16544e-08
1.0968e-05
9.66378e-08
1.09654e-05
9.45047e-08
1.09659e-05
8.69305e-08
1.09699e-05
8.81615e-08
1.09743e-05
9.24846e-08
1.09772e-05
9.1659e-08
8.49906e-08
1.09792e-05
1.14991e-05
-6.98404e-08
1.14973e-05
-1.56964e-07
1.15156e-05
5.04184e-08
1.14925e-05
-3.95485e-08
1.14863e-05
-1.24696e-07
1.15022e-05
2.52092e-08
1.1498e-05
6.76829e-08
1.14949e-05
1.52827e-08
1.15029e-05
4.21023e-08
1.15004e-05
7.93903e-08
1.14901e-05
5.99066e-08
1.14871e-05
4.38743e-08
1.14922e-05
6.6575e-08
1.14946e-05
9.42197e-08
1.14926e-05
9.64584e-08
1.14923e-05
8.7288e-08
1.14955e-05
8.48988e-08
1.15002e-05
8.78006e-08
1.15039e-05
8.80296e-08
8.26624e-08
1.15062e-05
1.20519e-05
-5.59284e-08
1.20467e-05
-1.5177e-07
1.20653e-05
3.18564e-08
1.20457e-05
-1.99796e-08
1.20356e-05
-1.14625e-07
1.20512e-05
9.66677e-09
1.20497e-05
6.91742e-08
1.20444e-05
2.05453e-08
1.20516e-05
3.49607e-08
1.20521e-05
7.89062e-08
1.20422e-05
6.97174e-08
1.20372e-05
4.89583e-08
1.20415e-05
6.22347e-08
1.20459e-05
8.98415e-08
1.20453e-05
9.7041e-08
1.20444e-05
8.81895e-08
1.20467e-05
8.25935e-08
1.20513e-05
8.32047e-08
1.20554e-05
8.39541e-08
7.97972e-08
1.20582e-05
1.2631e-05
-4.43159e-08
1.26228e-05
-1.43614e-07
1.26408e-05
1.38542e-08
1.26252e-05
-4.37164e-09
1.26121e-05
-1.01502e-07
1.26261e-05
-4.32175e-09
1.26275e-05
6.77296e-08
1.26207e-05
2.73519e-08
1.26263e-05
2.93523e-08
1.26296e-05
7.55921e-08
1.26214e-05
7.79512e-08
1.26147e-05
5.56705e-08
1.26173e-05
5.95979e-08
1.26231e-05
8.40723e-08
1.26244e-05
9.57935e-08
1.26235e-05
8.90172e-08
1.26248e-05
8.12789e-08
1.26289e-05
7.91173e-08
1.26333e-05
7.96025e-08
7.65685e-08
1.26365e-05
1.32375e-05
-3.4872e-08
1.3227e-05
-1.33114e-07
1.32436e-05
-2.77355e-09
1.32322e-05
7.06902e-09
1.32169e-05
-8.62555e-08
1.32285e-05
-1.58945e-08
1.32326e-05
6.36404e-08
1.32252e-05
3.47649e-08
1.32286e-05
2.59679e-08
1.32343e-05
6.98919e-08
1.32286e-05
8.36082e-08
1.32209e-05
6.34057e-08
1.32215e-05
5.89954e-08
1.32276e-05
7.79059e-08
1.32309e-05
9.25812e-08
1.32308e-05
8.90792e-08
1.32316e-05
8.04996e-08
1.32347e-05
7.59547e-08
1.32392e-05
7.51733e-08
7.31162e-08
1.32426e-05
1.38727e-05
-2.74142e-08
1.38605e-05
-1.20953e-07
1.38751e-05
-1.72825e-08
1.38677e-05
1.43861e-08
1.38514e-05
-6.98984e-08
1.38598e-05
-2.43624e-08
1.38662e-05
5.73275e-08
1.38591e-05
4.18678e-08
1.38598e-05
2.52121e-08
1.38671e-05
6.26461e-08
1.38647e-05
8.59976e-08
1.38569e-05
7.11355e-08
1.38555e-05
6.04732e-08
1.38611e-05
7.22431e-08
1.38659e-05
8.78017e-08
1.38672e-05
8.77901e-08
1.38679e-05
7.9786e-08
1.38704e-05
7.34615e-08
1.38745e-05
7.10696e-08
6.95298e-08
1.38781e-05
1.4538e-05
-2.1725e-08
1.45248e-05
-1.07762e-07
1.45367e-05
-2.92299e-08
1.45331e-05
1.79922e-08
1.45166e-05
-5.34096e-08
1.45217e-05
-2.944e-08
1.45296e-05
4.94043e-08
1.45237e-05
4.78206e-08
1.45218e-05
2.70631e-08
1.45294e-05
5.50383e-08
1.45306e-05
8.48872e-08
1.4524e-05
7.76949e-08
1.45208e-05
6.36671e-08
1.45251e-05
6.79587e-08
1.4531e-05
8.18513e-08
1.45337e-05
8.51488e-08
1.45349e-05
7.85377e-08
1.45368e-05
7.15774e-08
1.45404e-05
6.75113e-08
6.57074e-08
1.45442e-05
1.52347e-05
-1.75547e-08
1.52211e-05
-9.41616e-08
1.52302e-05
-3.83329e-08
1.52297e-05
1.84894e-08
1.5214e-05
-3.76668e-08
1.52157e-05
-3.12157e-08
1.52244e-05
4.07293e-08
1.52203e-05
5.19005e-08
1.52164e-05
3.09775e-08
1.5223e-05
4.84302e-08
1.52273e-05
8.06161e-08
1.5223e-05
8.19679e-08
1.52188e-05
6.7878e-08
1.52212e-05
6.55658e-08
1.52276e-05
7.5479e-08
1.52316e-05
8.11883e-08
1.52336e-05
7.6521e-08
1.52354e-05
6.97017e-08
1.52382e-05
6.4794e-08
6.19955e-08
1.52419e-05
1.59644e-05
-1.46413e-08
1.5951e-05
-8.07068e-08
1.59571e-05
-4.45027e-08
1.5959e-05
1.66159e-08
1.59448e-05
-2.3442e-08
1.59435e-05
-2.99313e-08
1.59522e-05
3.20145e-08
1.59503e-05
5.37865e-08
1.59452e-05
3.60631e-08
1.59497e-05
4.39781e-08
1.59562e-05
7.406e-08
1.59551e-05
8.31415e-08
1.59508e-05
7.21764e-08
1.59515e-05
6.48666e-08
1.59569e-05
7.003e-08
1.59623e-05
7.57661e-08
1.59651e-05
7.37713e-08
1.59673e-05
6.74714e-08
1.59696e-05
6.24956e-08
5.89355e-08
1.59727e-05
1.67287e-05
-1.27155e-08
1.67158e-05
-6.78538e-08
1.67192e-05
-4.78398e-08
1.67226e-05
1.31351e-08
1.67105e-05
-1.12764e-08
1.67066e-05
-2.60855e-08
1.67146e-05
2.40154e-08
1.6715e-05
5.34089e-08
1.67097e-05
4.13816e-08
1.67118e-05
4.18974e-08
1.67191e-05
6.67229e-08
1.6721e-05
8.12003e-08
1.67181e-05
7.51167e-08
1.67172e-05
6.57465e-08
1.67213e-05
6.59155e-08
1.6727e-05
7.01305e-08
1.6731e-05
6.97706e-08
1.67335e-05
6.49354e-08
1.6736e-05
6.00326e-08
5.64525e-08
1.67385e-05
1.75292e-05
-1.15096e-08
1.75173e-05
-5.59886e-08
1.7518e-05
-4.85351e-08
1.75224e-05
8.69572e-09
1.75126e-05
-1.4144e-09
1.75069e-05
-2.03867e-08
1.75134e-05
1.74396e-08
1.75159e-05
5.09151e-08
1.75112e-05
4.60856e-08
1.75112e-05
4.18965e-08
1.7518e-05
5.99916e-08
1.75224e-05
7.67709e-08
1.75217e-05
7.5797e-08
1.75202e-05
6.72934e-08
1.75227e-05
6.33419e-08
1.75277e-05
6.51768e-08
1.75323e-05
6.51376e-08
1.75356e-05
6.166e-08
1.75383e-05
5.73215e-08
5.41253e-08
1.75406e-05
1.83676e-05
-1.07697e-08
1.8357e-05
-4.54099e-08
1.83554e-05
-4.68854e-08
1.83601e-05
3.96518e-09
1.83528e-05
5.94122e-09
1.83459e-05
-1.34989e-08
1.83505e-05
1.27581e-08
1.83546e-05
4.68332e-08
1.83514e-05
4.92796e-08
1.83499e-05
4.34737e-08
1.83552e-05
5.46919e-08
1.8361e-05
7.08901e-08
1.83626e-05
7.42027e-08
1.83619e-05
6.80546e-08
1.83628e-05
6.23973e-08
1.83668e-05
6.1197e-08
1.83713e-05
6.06537e-08
1.83749e-05
5.80099e-08
1.83781e-05
5.41738e-08
5.15099e-08
1.83807e-05
1.92459e-05
-1.02772e-08
1.92368e-05
-3.62842e-08
1.92332e-05
-4.33183e-08
1.92377e-05
-5.13788e-10
1.92327e-05
1.08972e-08
1.92254e-05
-6.15605e-09
1.92281e-05
1.00779e-08
1.92329e-05
4.19902e-08
1.92317e-05
5.04419e-08
1.92294e-05
4.57969e-08
1.92329e-05