/*--------------------------------*- C++ -*----------------------------------*\
| =========                 |                                                 |
| \\      /  F ield         | OpenFOAM: The Open Source CFD Toolbox           |
|  \\    /   O peration     | Version:  3.0.1                                 |
|   \\  /    A nd           | Web:      www.OpenFOAM.org                      |
|    \\/     M anipulation  |                                                 |
\*---------------------------------------------------------------------------*/
FoamFile
{
    version     2.0;
    format      ascii;
    class       volVectorField;
    location    "0.4";
    object      U;
}
// * * * * * * * * * * * * * * * * * * * * * * * * * * * * * * * * * * * * * //

dimensions      [0 1 -1 0 0 0 0];

internalField   nonuniform List<vector> 
9600
(
(0.858893 -0.0104854 0)
(1.14221 0.0104737 0)
(0.820182 -0.00338879 0)
(1.16287 -0.00238219 0)
(0.920054 -0.0026925 0)
(1.18636 0.00472246 0)
(0.909103 0.00587058 0)
(1.16802 0.00519855 0)
(0.885155 -0.0028099 0)
(1.14401 0.000920135 0)
(0.927692 -0.0090639 0)
(1.15049 0.000167336 0)
(0.915839 -0.00286572 0)
(1.14946 0.00538241 0)
(0.915015 0.00165363 0)
(1.14496 0.00458742 0)
(0.903354 -0.000528094 0)
(1.14014 0.00123692 0)
(0.884587 -0.000915174 0)
(1.1407 0.000400836 0)
(0.86989 -0.0105797 0)
(1.13691 0.0108125 0)
(0.843161 -0.00368091 0)
(1.15269 -0.00311179 0)
(0.935585 -0.00317761 0)
(1.1762 0.0049533 0)
(0.930442 0.00583771 0)
(1.15106 0.00569327 0)
(0.916746 -0.00262925 0)
(1.12192 0.000451848 0)
(0.958724 -0.00939744 0)
(1.12541 0.000523674 0)
(0.955374 -0.00295894 0)
(1.11456 0.00545068 0)
(0.968545 0.00166187 0)
(1.09288 0.00483913 0)
(0.978537 -0.000217314 0)
(1.06202 0.00148948 0)
(0.989007 1.8488e-05 0)
(1.02363 0.000622618 0)
(0.886936 -0.0106862 0)
(1.12507 0.0111327 0)
(0.878598 -0.00396489 0)
(1.13029 -0.0036976 0)
(0.961523 -0.00355163 0)
(1.15434 0.00518691 0)
(0.968192 0.00598877 0)
(1.12336 0.00603565 0)
(0.960682 -0.00242196 0)
(1.08889 5.80947e-05 0)
(0.994156 -0.00945999 0)
(1.08764 0.000586881 0)
(0.998991 -0.00275512 0)
(1.07355 0.00522393 0)
(1.01369 0.00218947 0)
(1.05231 0.00458236 0)
(1.0179 0.000743212 0)
(1.02694 0.000977505 0)
(1.01362 0.00135023 0)
(1.00694 0.000784475 0)
(0.907652 -0.0108041 0)
(1.10741 0.0112132 0)
(0.916917 -0.00407464 0)
(1.09834 -0.00421627 0)
(0.987815 -0.00387879 0)
(1.12491 0.0052004 0)
(1.00738 0.00624215 0)
(1.09464 0.00621073 0)
(0.997235 -0.00204306 0)
(1.05902 -0.000272038 0)
(1.01484 -0.00939311 0)
(1.05529 0.000413687 0)
(1.02212 -0.00249067 0)
(1.04817 0.00494106 0)
(1.03081 0.00259247 0)
(1.03616 0.00449558 0)
(1.02539 0.00134075 0)
(1.01896 0.00110346 0)
(1.01241 0.00206692 0)
(1.00609 0.00154231 0)
(0.929499 -0.0109287 0)
(1.08632 0.0111151 0)
(0.950507 -0.00399949 0)
(1.06426 -0.00470048 0)
(1.00588 -0.0042211 0)
(1.09438 0.00499681 0)
(1.0351 0.00649991 0)
(1.07147 0.00640644 0)
(1.01769 -0.00158764 0)
(1.0388 -0.000419702 0)
(1.01909 -0.00927206 0)
(1.03383 0.000168985 0)
(1.02689 -0.00233475 0)
(1.03569 0.00468018 0)
(1.03246 0.00288738 0)
(1.02978 0.00452483 0)
(1.02373 0.00196326 0)
(1.01551 0.00131345 0)
(1.00943 0.00274492 0)
(1.00342 0.00217364 0)
(0.949927 -0.0110434 0)
(1.06473 0.0109194 0)
(0.975105 -0.00378871 0)
(1.03551 -0.00509923 0)
(1.01285 -0.00458399 0)
(1.06746 0.00465968 0)
(1.04677 0.00670247 0)
(1.05466 0.0066721 0)
(1.02418 -0.00113889 0)
(1.02661 -0.000380871 0)
(1.01481 -0.00909335 0)
(1.02 -0.000105929 0)
(1.02262 -0.00230725 0)
(1.02765 0.00442843 0)
(1.02829 0.0031287 0)
(1.0246 0.00460334 0)
(1.01975 0.00254512 0)
(1.01197 0.00155663 0)
(1.00627 0.00337067 0)
(1.00056 0.00286622 0)
(0.967062 -0.0111335 0)
(1.04494 0.0106767 0)
(0.990275 -0.00351008 0)
(1.01586 -0.00536867 0)
(1.01119 -0.00493873 0)
(1.04555 0.00426431 0)
(1.04499 0.00681712 0)
(1.04183 0.00696271 0)
(1.02269 -0.000721775 0)
(1.01883 -0.000227925 0)
(1.00898 -0.00885375 0)
(1.01041 -0.000398934 0)
(1.01536 -0.00234565 0)
(1.01997 0.00414909 0)
(1.02158 0.00332968 0)
(1.01867 0.00465402 0)
(1.01464 0.00307479 0)
(1.00811 0.0018243 0)
(1.0029 0.00390621 0)
(0.998002 0.00360155 0)
(0.980063 -0.0111896 0)
(1.0282 0.0104314 0)
(0.998101 -0.00322521 0)
(1.00493 -0.00550467 0)
(1.00544 -0.00524443 0)
(1.02814 0.00386767 0)
(1.03536 0.00684512 0)
(1.03098 0.00721274 0)
(1.01812 -0.000352749 0)
(1.01333 -4.79506e-05 0)
(1.00464 -0.0085665 0)
(1.0037 -0.000670539 0)
(1.00806 -0.00238037 0)
(1.0122 0.00384139 0)
(1.01397 0.00349508 0)
(1.01232 0.00465155 0)
(1.00934 0.0035327 0)
(1.00433 0.00209705 0)
(0.999844 0.00433511 0)
(0.995878 0.00434257 0)
(0.989021 -0.0112042 0)
(1.01497 0.0102119 0)
(1.00136 -0.00298053 0)
(1.00009 -0.00553445 0)
(0.9994 -0.00546316 0)
(1.01453 0.00351393 0)
(1.02324 0.00680644 0)
(1.02158 0.00737047 0)
(1.01322 -4.94894e-05 0)
(1.00937 0.000102331 0)
(1.00221 -0.00824903 0)
(0.999327 -0.000885035 0)
(1.00215 -0.00236566 0)
(1.00525 0.00353639 0)
(1.00692 0.00362496 0)
(1.00649 0.00459574 0)
(1.00472 0.00388908 0)
(1.00115 0.00236681 0)
(0.997509 0.00464803 0)
(0.994429 0.00505372 0)
(0.994608 -0.0111736 0)
(1.00526 0.0100201 0)
(1.00233 -0.00279887 0)
(0.998559 -0.00549256 0)
(0.994944 -0.00557599 0)
(1.00443 0.00322596 0)
(1.01228 0.00672071 0)
(1.01393 0.00741437 0)
(1.00918 0.000181193 0)
(1.00667 0.000199334 0)
(1.00111 -0.00791432 0)
(0.996785 -0.00103552 0)
(0.998118 -0.00228143 0)
(1.00001 0.00325531 0)
(1.00148 0.00372334 0)
(1.00196 0.00449383 0)
(1.00128 0.00413439 0)
(0.99888 0.00263331 0)
(0.996022 0.00485321 0)
(0.993696 0.005704 0)
(0.997724 -0.0111 0)
(0.998805 0.00984346 0)
(1.0024 -0.00267761 0)
(0.998422 -0.00540967 0)
(0.992373 -0.00558965 0)
(0.997594 0.00300342 0)
(1.00419 0.00660408 0)
(1.00836 0.00735301 0)
(1.00632 0.0003466 0)
(1.00498 0.00024243 0)
(1.00073 -0.00757032 0)
(0.99552 -0.00113513 0)
(0.995813 -0.00213431 0)
(0.996718 0.0030037 0)
(0.997969 0.00379466 0)
(0.999003 0.00436451 0)
(0.999073 0.00428084 0)
(0.997512 0.00290006 0)
(0.995268 0.00497792 0)
(0.993518 0.00627031 0)
(0.999244 -0.0109906 0)
(0.995014 0.00966804 0)
(1.00223 -0.00259934 0)
(0.998682 -0.00530855 0)
(0.991223 -0.00552585 0)
(0.993544 0.00283252 0)
(0.999172 0.00647083 0)
(1.00479 0.00721228 0)
(1.00453 0.000463294 0)
(1.004 0.000243702 0)
(1.00062 -0.00722098 0)
(0.995022 -0.00120206 0)
(0.994745 -0.00194449 0)
(0.995049 0.00277978 0)
(0.996102 0.00384137 0)
(0.99739 0.00423204 0)
(0.997866 0.00434985 0)
(0.996824 0.00317111 0)
(0.995017 0.00505743 0)
(0.993672 0.0067395 0)
(0.999872 -0.010854 0)
(0.993121 0.00948453 0)
(1.00205 -0.0025441 0)
(0.99895 -0.00520275 0)
(0.990897 -0.00540868 0)
(0.991523 0.00269375 0)
(0.99655 0.00633105 0)
(1.00279 0.00701933 0)
(1.0035 0.000550451 0)
(1.00345 0.000217644 0)
(1.00059 -0.00686784 0)
(0.994918 -0.00125136 0)
(0.994398 -0.00173349 0)
(0.994435 0.0025806 0)
(0.99532 0.00386343 0)
(0.996682 0.00411846 0)
(0.997312 0.00436533 0)
(0.996553 0.00344387 0)
(0.995043 0.00512536 0)
(0.993971 0.0071072 0)
(1.00008 -0.0106982 0)
(0.992364 0.00928805 0)
(1.00189 -0.00249552 0)
(0.999131 -0.00509905 0)
(0.990952 -0.00525757 0)
(0.990748 0.00256871 0)
(0.995426 0.00619091 0)
(1.00179 0.00679498 0)
(1.00293 0.00062314 0)
(1.00312 0.000175644 0)
(1.00056 -0.00651268 0)
(0.994983 -0.0012906 0)
(0.994389 -0.00151938 0)
(0.994364 0.00240406 0)
(0.995107 0.00386192 0)
(0.996457 0.00403363 0)
(0.997108 0.00435037 0)
(0.996492 0.00370736 0)
(0.995188 0.00520801 0)
(0.994304 0.00737921 0)
(1.00013 -0.0105282 0)
(0.992171 0.00907679 0)
(1.00174 -0.00244296 0)
(0.999232 -0.00500113 0)
(0.991139 -0.00508506 0)
(0.990612 0.00244527 0)
(0.995067 0.00605357 0)
(1.00132 0.0065525 0)
(1.00261 0.000692047 0)
(1.00289 0.000126615 0)
(1.00052 -0.00615769 0)
(0.995105 -0.00132277 0)
(0.994499 -0.00131391 0)
(0.994506 0.00224869 0)
(0.995126 0.00384043 0)
(0.996433 0.0039747 0)
(0.997058 0.0043273 0)
(0.996518 0.00394804 0)
(0.995375 0.00531585 0)
(0.994629 0.00757113 0)
(1.00014 -0.010347 0)
(0.992202 0.00885034 0)
(1.00158 -0.0023808 0)
(0.999283 -0.00491111 0)
(0.991352 -0.00489731 0)
(0.990746 0.00231654 0)
(0.995028 0.00592136 0)
(1.00108 0.00629803 0)
(1.00239 0.000761381 0)
(1.00269 7.62743e-05 0)
(1.00048 -0.00580666 0)
(0.995237 -0.00134478 0)
(0.994633 -0.00112223 0)
(0.994704 0.0021131 0)
(0.995212 0.00380121 0)
(0.996469 0.00393531 0)
(0.997066 0.00431406 0)
(0.996577 0.0041628 0)
(0.995572 0.00544258 0)
(0.99494 0.00770147 0)
(1.00015 -0.0101556 0)
(0.992302 0.00860862 0)
(1.00141 -0.00230661 0)
(0.999307 -0.00483004 0)
(0.991557 -0.00469669 0)
(0.990971 0.0021793 0)
(0.995099 0.00579414 0)
(1.00093 0.00603576 0)
(1.00221 0.000829357 0)
(1.0025 2.72655e-05 0)
(1.00043 -0.00546384 0)
(0.995367 -0.00135147 0)
(0.994762 -0.00094873 0)
(0.9949 0.00199731 0)
(0.995307 0.00374715 0)
(0.996513 0.00390723 0)
(0.997095 0.0043168 0)
(0.99665 0.00435746 0)
(0.995775 0.00557508 0)
(0.995243 0.00778617 0)
(1.00017 -0.00995441 0)
(0.99242 0.00835149 0)
(1.00124 -0.00221933 0)
(0.999319 -0.00475848 0)
(0.991749 -0.00448407 0)
(0.991217 0.00203336 0)
(0.995198 0.00567043 0)
(1.00081 0.00576789 0)
(1.00206 0.000898974 0)
(1.00232 -1.52115e-05 0)
(1.00039 -0.00513266 0)
(0.995494 -0.00133966 0)
(0.994882 -0.000793626 0)
(0.995084 0.00190057 0)
(0.995398 0.00368728 0)
(0.996555 0.00387921 0)
(0.997133 0.00433462 0)
(0.996733 0.00453723 0)
(0.99598 0.00570255 0)
(0.995543 0.00783743 0)
(1.00018 -0.00974322 0)
(0.992541 0.00807859 0)
(1.00107 -0.00211833 0)
(0.999329 -0.00469677 0)
(0.991935 -0.00426011 0)
(0.991464 0.00187801 0)
(0.995303 0.00555108 0)
(1.0007 0.00549421 0)
(1.0019 0.000967662 0)
(1.00215 -4.75956e-05 0)
(1.00035 -0.00481779 0)
(0.995621 -0.00130979 0)
(0.994998 -0.000651573 0)
(0.99526 0.00181474 0)
(0.995486 0.00363213 0)
(0.996595 0.00384759 0)
(0.997178 0.00436299 0)
(0.996821 0.00470475 0)
(0.996184 0.00581463 0)
(0.99584 0.0078594 0)
(1.0002 -0.00952205 0)
(0.992665 0.00779004 0)
(1.00091 -0.00200391 0)
(0.99934 -0.00464455 0)
(0.992119 -0.00402497 0)
(0.99171 0.00171337 0)
(0.995409 0.00543383 0)
(1.00059 0.0052191 0)
(1.00176 0.00102783 0)
(1.00197 -6.6812e-05 0)
(1.00031 -0.00452288 0)
(0.99575 -0.00126448 0)
(0.995112 -0.00051901 0)
(0.995432 0.00173339 0)
(0.995574 0.00358723 0)
(0.996634 0.00381557 0)
(0.99723 0.00439218 0)
(0.996912 0.00486439 0)
(0.996385 0.00590561 0)
(0.996133 0.00784973 0)
(1.00022 -0.00929062 0)
(0.992793 0.00748551 0)
(1.00074 -0.00187577 0)
(0.999355 -0.00460203 0)
(0.992304 -0.00378025 0)
(0.991956 0.00154259 0)
(0.995515 0.00531541 0)
(1.00048 0.00494743 0)
(1.00161 0.00107847 0)
(1.00179 -6.89587e-05 0)
(1.00028 -0.00424554 0)
(0.995881 -0.00120621 0)
(0.995224 -0.000391515 0)
(0.995602 0.00165406 0)
(0.995665 0.00355102 0)
(0.996674 0.0037881 0)
(0.997292 0.00441308 0)
(0.997007 0.00502601 0)
(0.996581 0.00598467 0)
(0.996421 0.00780814 0)
(1.00023 -0.00904898 0)
(0.992926 0.00716524 0)
(1.00057 -0.00173414 0)
(0.999374 -0.00456934 0)
(0.992491 -0.00352613 0)
(0.992205 0.00136847 0)
(0.995622 0.00519516 0)
(1.00037 0.00468009 0)
(1.00147 0.00111415 0)
(1.00162 -5.40631e-05 0)
(1.00025 -0.00398615 0)
(0.996016 -0.00113098 0)
(0.995336 -0.000265369 0)
(0.995773 0.00157144 0)
(0.995762 0.00352403 0)
(0.996715 0.00377596 0)
(0.997365 0.00441457 0)
(0.997107 0.00518712 0)
(0.996768 0.00606747 0)
(0.996702 0.00774034 0)
(1.00025 -0.00879732 0)
(0.993063 0.0068301 0)
(1.0004 -0.00158019 0)
(0.999397 -0.00454506 0)
(0.99268 -0.00326347 0)
(0.992455 0.00119081 0)
(0.995732 0.00507004 0)
(1.00026 0.00442211 0)
(1.00133 0.00113267 0)
(1.00144 -1.85461e-05 0)
(1.00022 -0.00374416 0)
(0.996154 -0.00105013 0)
(0.995445 -0.000136567 0)
(0.995945 0.00148237 0)
(0.995866 0.00350165 0)
(0.996758 0.00378958 0)
(0.99745 0.00439434 0)
(0.997216 0.00532629 0)
(0.996945 0.00616274 0)
(0.996974 0.0076598 0)
(1.00027 -0.0085355 0)
(0.993206 0.00648021 0)
(1.00023 -0.0014142 0)
(0.999425 -0.00452794 0)
(0.992872 -0.00299715 0)
(0.992707 0.00101304 0)
(0.995844 0.00493589 0)
(1.00015 0.00418057 0)
(1.00119 0.00113285 0)
(1.00126 3.63417e-05 0)
(1.00019 -0.00351461 0)
(0.996296 -0.0009788 0)
(0.995551 4.77398e-06 0)
(0.996119 0.00139152 0)
(0.995982 0.00347353 0)
(0.996801 0.00382774 0)
(0.997546 0.00436638 0)
(0.997338 0.00542504 0)
(0.997114 0.00626557 0)
(0.997233 0.00757472 0)
(1.00028 -0.00826378 0)
(0.993357 0.0061162 0)
(1.00006 -0.0012372 0)
(0.999456 -0.00451696 0)
(0.993066 -0.0027291 0)
(0.992959 0.0008401 0)
(0.995959 0.00478902 0)
(1.00005 0.00395863 0)
(1.00106 0.00110919 0)
(1.00109 0.000104636 0)
(1.00015 -0.00329075 0)
(0.996442 -0.000909192 0)
(0.995653 0.000165791 0)
(0.996291 0.0013081 0)
(0.996111 0.00343857 0)
(0.996846 0.00388518 0)
(0.997648 0.00434197 0)
(0.997475 0.00548057 0)
(0.997276 0.00636726 0)
(0.997477 0.0074882 0)
(1.0003 -0.00798242 0)
(0.993515 0.00573928 0)
(0.999886 -0.00105131 0)
(0.999491 -0.00451035 0)
(0.993263 -0.00246115 0)
(0.993212 0.000675224 0)
(0.996078 0.00462608 0)
(0.999938 0.00375698 0)
(1.00093 0.00106298 0)
(1.00091 0.000183935 0)
(1.00011 -0.00306826 0)
(0.996593 -0.000848173 0)
(0.995752 0.000341464 0)
(0.996461 0.0012384 0)
(0.996256 0.00339348 0)
(0.996894 0.0039621 0)
(0.997753 0.00432441 0)
(0.997627 0.005494 0)
(0.997434 0.00646098 0)
(0.997702 0.00740947 0)
(1.00031 -0.00769175 0)
(0.993681 0.00535113 0)
(0.999713 -0.00085852 0)
(0.99953 -0.00450585 0)
(0.993463 -0.00219768 0)
(0.993462 0.000522387 0)
(0.996201 0.00444402 0)
(0.999829 0.00357985 0)
(1.00081 0.000996348 0)
(1.00074 0.000272446 0)
(1.00007 -0.00284223 0)
(0.996751 -0.000805318 0)
(0.995849 0.000525227 0)
(0.996627 0.00118879 0)
(0.996418 0.0033281 0)
(0.996946 0.00405927 0)
(0.997855 0.00432274 0)
(0.997795 0.00546509 0)
(0.997593 0.00653261 0)
(0.997906 0.00735141 0)
(1.00033 -0.00739243 0)
(0.993855 0.00495296 0)
(0.999539 -0.000659315 0)
(0.999571 -0.0045028 0)
(0.993667 -0.00194049 0)
(0.99371 0.000385573 0)
(0.996328 0.00423844 0)
(0.999719 0.00343176 0)
(1.00069 0.000913575 0)
(1.00058 0.000365409 0)
(1.00002 -0.00260525 0)
(0.996914 -0.000776015 0)
(0.995946 0.000713804 0)
(0.996784 0.00117106 0)
(0.9966 0.00323389 0)
(0.997007 0.00416406 0)
(0.997951 0.00434746 0)
(0.997975 0.00539992 0)
(0.997759 0.00656114 0)
(0.998086 0.00732414 0)
(1.00034 -0.00708505 0)
(0.994038 0.00454671 0)
(0.999365 -0.000456912 0)
(0.999613 -0.00449809 0)
(0.993875 -0.0016938 0)
(0.993954 0.000268435 0)
(0.99646 0.00400795 0)
(0.999608 0.00331111 0)
(1.00058 0.000816471 0)
(1.00042 0.000451255 0)
(0.999966 -0.00235668 0)
(0.997082 -0.000759524 0)
(0.996046 0.000901455 0)
(0.99693 0.00119705 0)
(0.996798 0.00311348 0)
(0.997082 0.00425424 0)
(0.998037 0.00440188 0)
(0.998162 0.00531539 0)
(0.997939 0.00652913 0)
(0.998247 0.00731659 0)
(1.00035 -0.00676987 0)
(0.994229 0.00413392 0)
(0.999193 -0.000253338 0)
(0.999657 -0.0044904 0)
(0.994086 -0.0014628 0)
(0.994194 0.000174559 0)
(0.996597 0.00375274 0)
(0.999497 0.00321301 0)
(1.00046 0.000710733 0)
(1.00026 0.000526479 0)
(0.999901 -0.00209321 0)
(0.997254 -0.000756334 0)
(0.996151 0.00107481 0)
(0.99706 0.00126784 0)
(0.99701 0.00298099 0)
(0.997177 0.00431347 0)
(0.998112 0.0044885 0)
(0.998346 0.00523785 0)
(0.998137 0.00643515 0)
(0.998398 0.00729378 0)
(1.00036 -0.00644774 0)
(0.994429 0.00371637 0)
(0.999023 -4.97134e-05 0)
(0.999701 -0.00447816 0)
(0.994301 -0.00124886 0)
(0.994426 0.000105056 0)
(0.99674 0.00347458 0)
(0.999385 0.00313408 0)
(1.00035 0.000606841 0)
(1.00012 0.000584342 0)
(0.999826 -0.001809 0)
(0.997427 -0.000754508 0)
(0.996266 0.00122786 0)
(0.997174 0.00138504 0)
(0.997228 0.00285327 0)
(0.997296 0.00432403 0)
(0.998181 0.00459022 0)
(0.998518 0.00519273 0)
(0.998347 0.0062996 0)
(0.998553 0.00722109 0)
(1.00036 -0.00611989 0)
(0.994636 0.00329676 0)
(0.998856 0.000152383 0)
(0.999745 -0.00445918 0)
(0.99452 -0.0010531 0)
(0.994648 6.22628e-05 0)
(0.99689 0.00317514 0)
(0.999274 0.00307048 0)
(1.00024 0.000512212 0)
(0.999996 0.000613748 0)
(0.999744 -0.00150127 0)
(0.997598 -0.000747632 0)
(0.996394 0.00135107 0)
(0.997273 0.00154948 0)
(0.997445 0.00274979 0)
(0.99744 0.00428662 0)
(0.998252 0.00467219 0)
(0.998673 0.00518396 0)
(0.99856 0.00616535 0)
(0.998718 0.00709354 0)
(1.00037 -0.00578718 0)
(0.994853 0.00287785 0)
(0.998691 0.000350612 0)
(0.999789 -0.00443146 0)
(0.994744 -0.000882231 0)
(0.994859 5.29972e-05 0)
(0.997045 0.00285574 0)
(0.999167 0.00301487 0)
(1.00013 0.000436881 0)
(0.999885 0.000612893 0)
(0.999654 -0.00117377 0)
(0.997763 -0.000727446 0)
(0.99654 0.00142583 0)
(0.997359 0.00174344 0)
(0.997652 0.00267941 0)
(0.997605 0.00421869 0)
(0.998332 0.00472341 0)
(0.998815 0.00518015 0)
(0.998765 0.00605797 0)
(0.998889 0.00694431 0)
(1.00037 -0.00545029 0)
(0.995077 0.00246088 0)
(0.99853 0.000545268 0)
(0.999831 -0.00439377 0)
(0.994973 -0.000739185 0)
(0.995056 7.48173e-05 0)
(0.997204 0.00252087 0)
(0.999065 0.00296477 0)
(1.00001 0.000388449 0)
(0.999791 0.000572772 0)
(0.99956 -0.000837235 0)
(0.997916 -0.000675236 0)
(0.996704 0.00144522 0)
(0.997439 0.00194396 0)
(0.997843 0.00265095 0)
(0.997786 0.00412382 0)
(0.998421 0.00475421 0)
(0.998948 0.00516586 0)
(0.998964 0.00595632 0)
(0.999061 0.00679851 0)
(1.00037 -0.00511066 0)
(0.995309 0.00204776 0)
(0.998373 0.000729891 0)
(0.999869 -0.00434487 0)
(0.995209 -0.000626083 0)
(0.995238 0.000127923 0)
(0.997365 0.002177 0)
(0.998972 0.00290906 0)
(0.999882 0.000376005 0)
(0.999715 0.000493486 0)
(0.999468 -0.000505337 0)
(0.998051 -0.000576932 0)
(0.996885 0.00141838 0)
(0.99752 0.00212684 0)
(0.998014 0.00267752 0)
(0.997978 0.00401371 0)
(0.998523 0.00475216 0)
(0.999072 0.0051529 0)
(0.999155 0.00584585 0)
(0.999236 0.00663975 0)
(1.00037 -0.00476943 0)
(0.995548 0.00164132 0)
(0.998222 0.000900714 0)
(0.999903 -0.00428275 0)
(0.995453 -0.000547409 0)
(0.995404 0.000212583 0)
(0.997525 0.0018309 0)
(0.99889 0.00283357 0)
(0.999745 0.000412327 0)
(0.999655 0.000385682 0)
(0.999385 -0.000202362 0)
(0.998163 -0.00041539 0)
(0.997078 0.0013697 0)
(0.997611 0.00226711 0)
(0.998164 0.00275055 0)
(0.998171 0.00391838 0)
(0.99864 0.00470559 0)
(0.999189 0.00513392 0)
(0.999333 0.00574542 0)
(0.999418 0.0064551 0)
(1.00037 -0.00442753 0)
(0.995794 0.00124106 0)
(0.998077 0.00106352 0)
(0.99993 -0.0042042 0)
(0.995707 -0.000506026 0)
(0.995553 0.00032903 0)
(0.997681 0.00148941 0)
(0.998823 0.00273098 0)
(0.999595 0.00050428 0)
(0.999605 0.000263495 0)
(0.999319 5.87091e-05 0)
(0.998254 -0.000193485 0)
(0.997274 0.00132525 0)
(0.997717 0.00235408 0)
(0.998299 0.00284332 0)
(0.998355 0.00385557 0)
(0.998768 0.00462991 0)
(0.999307 0.00508533 0)
(0.999494 0.00566232 0)
(0.999599 0.00626807 0)
(1.00036 -0.0040862 0)
(0.996048 0.00085151 0)
(0.99794 0.00120945 0)
(0.999949 -0.004101 0)
(0.995971 -0.000504836 0)
(0.995688 0.000477647 0)
(0.997828 0.00116622 0)
(0.998777 0.00259245 0)
(0.999434 0.000644332 0)
(0.999562 0.00014672 0)
(0.999274 0.00025929 0)
(0.998324 8.24058e-05 0)
(0.997463 0.00130812 0)
(0.99784 0.0023844 0)
(0.998427 0.00292737 0)
(0.998525 0.0038278 0)
(0.998898 0.00455306 0)
(0.99943 0.00499642 0)
(0.999645 0.00557115 0)
(0.999769 0.00610665 0)
(1.00035 -0.003748 0)
(0.996306 0.000475382 0)
(0.997813 0.00133963 0)
(0.999958 -0.00396971 0)
(0.996246 -0.000547655 0)
(0.995808 0.000646996 0)
(0.997963 0.000877969 0)
(0.998755 0.0024084 0)
(0.999265 0.000818451 0)
(0.999515 6.01795e-05 0)
(0.999258 0.000376167 0)
(0.998382 0.000383326 0)
(0.997633 0.00133837 0)
(0.997977 0.00237321 0)
(0.998558 0.00298216 0)
(0.998685 0.00382081 0)
(0.999019 0.00449889 0)
(0.999553 0.00488478 0)
(0.999797 0.0054414 0)
(0.999927 0.00596187 0)
(1.00033 -0.00341425 0)
(0.99657 0.000114862 0)
(0.997698 0.00144865 0)
(0.999953 -0.00380552 0)
(0.996532 -0.000636329 0)
(0.995919 0.000826729 0)
(0.99808 0.000634695 0)
(0.998758 0.00217623 0)
(0.999095 0.00101453 0)
(0.999457 2.71839e-05 0)
(0.999268 0.000412947 0)
(0.998438 0.000664758 0)
(0.99778 0.00142577 0)
(0.998117 0.00234903 0)
(0.998697 0.00300283 0)
(0.998842 0.00381166 0)
(0.99913 0.00447052 0)
(0.999663 0.00478616 0)
(0.99995 0.00527113 0)
(1.00008 0.00579938 0)
(1.00032 -0.00308525 0)
(0.996838 -0.000226206 0)
(0.997597 0.00153092 0)
(0.999934 -0.00360539 0)
(0.99683 -0.000768964 0)
(0.996023 0.0010023 0)
(0.998174 0.000456193 0)
(0.998789 0.00189195 0)
(0.99893 0.00120971 0)
(0.999379 6.71108e-05 0)
(0.999302 0.000400002 0)
(0.998505 0.000904648 0)
(0.997903 0.00156848 0)
(0.998251 0.00233371 0)
(0.998843 0.00298948 0)
(0.999004 0.00378536 0)
(0.999236 0.00444972 0)
(0.999751 0.00472382 0)
(1.00009 0.00509305 0)
(1.00024 0.00559799 0)
(1.0003 -0.00276553 0)
(0.997109 -0.000542635 0)
(0.997514 0.0015863 0)
(0.999897 -0.0033658 0)
(0.997136 -0.000936868 0)
(0.996128 0.00115825 0)
(0.998238 0.000351338 0)
(0.998845 0.00157465 0)
(0.998785 0.00137595 0)
(0.999279 0.000180825 0)
(0.99935 0.000363376 0)
(0.998592 0.00108235 0)
(0.998007 0.00174532 0)
(0.998368 0.00234346 0)
(0.998992 0.00294325 0)
(0.999173 0.0037362 0)
(0.999345 0.00441615 0)
(0.999818 0.00468413 0)
(1.00021 0.0049453 0)
(1.00039 0.00537542 0)
(1.00027 -0.00245584 0)
(0.997381 -0.000828982 0)
(0.997452 0.00160402 0)
(0.999841 -0.00308726 0)
(0.997449 -0.00112482 0)
(0.99624 0.00127838 0)
(0.998271 0.000319124 0)
(0.99892 0.00125721 0)
(0.998667 0.00149383 0)
(0.999155 0.000357189 0)
(0.999402 0.000326257 0)
(0.998707 0.00118391 0)
(0.998101 0.00192922 0)
(0.998461 0.00239265 0)
(0.999136 0.00288307 0)
(0.999353 0.00365985 0)
(0.999462 0.00436745 0)
(0.999873 0.00464549 0)
(1.0003 0.0048261 0)
(1.00052 0.00516911 0)
(1.00025 -0.00215995 0)
(0.997652 -0.00108208 0)
(0.997413 0.00158525 0)
(0.999767 -0.00277112 0)
(0.997764 -0.00132469 0)
(0.996367 0.0013419 0)
(0.998273 0.000359591 0)
(0.999006 0.000952845 0)
(0.998586 0.00155195 0)
(0.999013 0.000584479 0)
(0.999442 0.00032289 0)
(0.998849 0.00121038 0)
(0.998199 0.00209408 0)
(0.998526 0.00248692 0)
(0.999264 0.00283379 0)
(0.999543 0.00354856 0)
(0.999593 0.00429934 0)
(0.999919 0.00461452 0)
(1.00036 0.00471684 0)
(1.00063 0.00498365 0)
(1.00022 -0.00187853 0)
(0.99792 -0.00130039 0)
(0.9974 0.00152696 0)
(0.999674 -0.00241995 0)
(0.998072 -0.00151695 0)
(0.996515 0.00134085 0)
(0.998247 0.000458805 0)
(0.999094 0.000683025 0)
(0.998548 0.00154388 0)
(0.998862 0.000831613 0)
(0.999458 0.000365777 0)
(0.999014 0.00117799 0)
(0.998318 0.00221261 0)
(0.998569 0.00261682 0)
(0.999363 0.00281547 0)
(0.999735 0.00340904 0)
(0.999749 0.00418688 0)
(0.999961 0.00458806 0)
(1.00039 0.00463297 0)
(1.00071 0.00480242 0)
(1.0002 -0.00161401 0)
(0.998181 -0.00147766 0)
(0.997416 0.00142617 0)
(0.999565 -0.00204849 0)
(0.998368 -0.00167958 0)
(0.99669 0.00127043 0)
(0.998201 0.000594921 0)
(0.999173 0.000467441 0)
(0.998554 0.00147919 0)
(0.998713 0.00107835 0)
(0.999443 0.000461438 0)
(0.999192 0.0011146 0)
(0.998467 0.00226969 0)
(0.998601 0.00275819 0)
(0.999421 0.00284274 0)
(0.999913 0.00327254 0)
(0.999934 0.00402063 0)
(1.00002 0.00452862 0)
(1.00039 0.00459095 0)
(1.00076 0.00463524 0)
(1.00017 -0.00137194 0)
(0.998432 -0.00160774 0)
(0.997463 0.00128765 0)
(0.999444 -0.00167196 0)
(0.998643 -0.00180432 0)
(0.996892 0.0011364 0)
(0.998143 0.000749701 0)
(0.999236 0.000312876 0)
(0.998603 0.00136887 0)
(0.998579 0.00130814 0)
(0.999391 0.000614485 0)
(0.999369 0.00104501 0)
(0.998654 0.00225495 0)
(0.998638 0.00288099 0)
(0.99944 0.00291344 0)
(1.00006 0.0031704 0)
(1.00014 0.00382208 0)
(1.00012 0.00440522 0)
(1.00037 0.00456383 0)
(1.00076 0.00451641 0)
(1.00014 -0.00114883 0)
(0.998671 -0.00169639 0)
(0.997539 0.00111451 0)
(0.999316 -0.00130037 0)
(0.99889 -0.00187286 0)
(0.997125 0.000950996 0)
(0.998082 0.00090177 0)
(0.999276 0.000227918 0)
(0.99869 0.00122236 0)
(0.998473 0.00149873 0)
(0.999303 0.000820749 0)
(0.999525 0.00099778 0)
(0.998876 0.00216722 0)
(0.998699 0.00296152 0)
(0.999427 0.00301297 0)
(1.00016 0.003114 0)
(1.00033 0.00362533 0)
(1.00026 0.0042199 0)
(1.00037 0.0044944 0)
(1.00071 0.00444802 0)
(1.00011 -0.000950068 0)
(0.998894 -0.00173775 0)
(0.997645 0.00091485 0)
(0.999186 -0.000952091 0)
(0.999102 -0.00187346 0)
(0.997382 0.00073037 0)
(0.998029 0.00102609 0)
(0.999288 0.000207747 0)
(0.998808 0.00105907 0)
(0.998407 0.00163772 0)
(0.999187 0.00106166 0)
(0.999644 0.000995721 0)
(0.999125 0.00202775 0)
(0.998802 0.00297785 0)
(0.999399 0.00311863 0)
(1.00021 0.00309988 0)
(1.00051 0.0034592 0)
(1.00042 0.00400635 0)
(1.00041 0.00435736 0)
(1.00065 0.00438532 0)
(1.00008 -0.000775638 0)
(0.999099 -0.0017358 0)
(0.997778 0.000700152 0)
(0.999062 -0.000635965 0)
(0.999277 -0.00181432 0)
(0.997659 0.000492333 0)
(0.997994 0.00111666 0)
(0.999273 0.000240999 0)
(0.998945 0.000890995 0)
(0.998389 0.00171999 0)
(0.999054 0.00131551 0)
(0.999711 0.00104886 0)
(0.999382 0.00187211 0)
(0.998954 0.00292083 0)
(0.999375 0.00320574 0)
(1.00021 0.00312267 0)
(1.00064 0.00332464 0)
(1.00059 0.00379335 0)
(1.00049 0.00417232 0)
(1.0006 0.00428094 0)
(1.00006 -0.000623467 0)
(0.999283 -0.00169621 0)
(0.997935 0.000477751 0)
(0.998949 -0.000360647 0)
(0.999411 -0.00169234 0)
(0.997948 0.000247177 0)
(0.997985 0.00116488 0)
(0.99923 0.000324634 0)
(0.999092 0.000733314 0)
(0.998426 0.00173571 0)
(0.998919 0.00156543 0)
(0.999721 0.00116651 0)
(0.999627 0.00172973 0)
(0.999157 0.00279009 0)
(0.999375 0.00325162 0)
(1.00017 0.00317919 0)
(1.00072 0.00322959 0)
(1.00075 0.00359108 0)
(1.00059 0.00397386 0)
(1.00058 0.00412564 0)
(1.00003 -0.000497012 0)
(0.999445 -0.00161807 0)
(0.99811 0.00025929 0)
(0.998856 -0.000138225 0)
(0.999504 -0.00151987 0)
(0.99824 2.45123e-05 0)
(0.998011 0.00116025 0)
(0.999165 0.000442124 0)
(0.999234 0.000606093 0)
(0.998518 0.00167766 0)
(0.998802 0.00178354 0)
(0.999674 0.00134453 0)
(0.999831 0.00163523 0)
(0.9994 0.00259655 0)
(0.999423 0.00322752 0)
(1.0001 0.00323686 0)
(1.00075 0.00318874 0)
(1.00089 0.003408 0)
(1.0007 0.0037788 0)
(1.00059 0.00395662 0)
(1.00001 -0.00039226 0)
(0.999584 -0.00151268 0)
(0.998299 5.55917e-05 0)
(0.998786 3.43272e-05 0)
(0.999561 -0.0013159 0)
(0.998524 -0.000167604 0)
(0.998073 0.00111056 0)
(0.999087 0.000575475 0)
(0.999358 0.000519619 0)
(0.998661 0.00155864 0)
(0.998725 0.00194469 0)
(0.999583 0.00155263 0)
(0.999972 0.00160875 0)
(0.999658 0.00238898 0)
(0.999531 0.00312146 0)
(1.00005 0.00325848 0)
(1.00072 0.00318819 0)
(1.00098 0.00326407 0)
(1.00082 0.00357276 0)
(1.00062 0.00379116 0)
(0.999995 -0.000308328 0)
(0.9997 -0.00138587 0)
(0.998495 -0.000128692 0)
(0.998743 0.000150836 0)
(0.999582 -0.00108718 0)
(0.998792 -0.000325415 0)
(0.998175 0.00101918 0)
(0.999005 0.000715518 0)
(0.999452 0.000481503 0)
(0.998843 0.00140101 0)
(0.998702 0.00203295 0)
(0.999468 0.00176539 0)
(1.00004 0.00164103 0)
(0.999901 0.00220866 0)
(0.999691 0.00294636 0)
(1.00003 0.00321876 0)
(1.00066 0.00318617 0)
(1.00102 0.00317642 0)
(1.00094 0.00336745 0)
(1.00067 0.00361404 0)
(0.999981 -0.000243726 0)
(0.999792 -0.00124477 0)
(0.998693 -0.000288059 0)
(0.99873 0.000217678 0)
(0.999578 -0.000853865 0)
(0.999033 -0.000427151 0)
(0.998315 0.000888983 0)
(0.998931 0.00084089 0)
(0.999508 0.000500146 0)
(0.999049 0.00122767 0)
(0.998745 0.00203275 0)
(0.999349 0.00195865 0)
(1.00005 0.00173476 0)
(1.0001 0.0020671 0)
(0.999881 0.0027422 0)
(1.00006 0.00311252 0)
(1.0006 0.00314567 0)
(1.001 0.00312164 0)
(1.00102 0.00319772 0)
(1.00074 0.00341564 0)
(0.999971 -0.000194949 0)
(0.999864 -0.00109656 0)
(0.998887 -0.000414564 0)
(0.998747 0.000241186 0)
(0.999554 -0.000625766 0)
(0.999242 -0.000477933 0)
(0.998485 0.000743459 0)
(0.998879 0.00093064 0)
(0.999526 0.000573924 0)
(0.999254 0.00107158 0)
(0.998854 0.00194001 0)
(0.999259 0.00209451 0)
(0.999993 0.00187065 0)
(1.00024 0.00198221 0)
(1.00008 0.00253164 0)
(1.00013 0.00295674 0)
(1.00056 0.00305299 0)
(1.00096 0.00305298 0)
(1.00105 0.00307757 0)
(1.00082 0.0032166 0)
(0.999964 -0.000160309 0)
(0.999915 -0.000947628 0)
(0.99907 -0.000504263 0)
(0.998794 0.000227873 0)
(0.99952 -0.000413363 0)
(0.999415 -0.000479193 0)
(0.998677 0.000594113 0)
(0.998859 0.000982975 0)
(0.999513 0.000675458 0)
(0.999434 0.000961184 0)
(0.999017 0.00178153 0)
(0.999222 0.00215123 0)
(0.999905 0.00200154 0)
(1.00031 0.00197447 0)
(1.00026 0.00234019 0)
(1.00024 0.00276879 0)
(1.00056 0.00292212 0)
(1.00092 0.00294211 0)
(1.00104 0.00298006 0)
(1.00088 0.00305173 0)
(0.99996 -0.000136738 0)
(0.99995 -0.000803207 0)
(0.999238 -0.000558769 0)
(0.998866 0.000190737 0)
(0.999485 -0.000230667 0)
(0.99955 -0.000433417 0)
(0.998881 0.000449757 0)
(0.998877 0.000994648 0)
(0.99948 0.000785514 0)
(0.999575 0.00090234 0)
(0.999211 0.0016068 0)
(0.999248 0.00211333 0)
(0.999817 0.00210123 0)
(1.00031 0.00201198 0)
(1.00039 0.0022087 0)
(1.00036 0.00256426 0)
(1.00057 0.00276718 0)
(1.0009 0.00279912 0)
(1.00103 0.00285564 0)
(1.00092 0.00292411 0)
(0.999959 -0.000121942 0)
(0.999972 -0.000666878 0)
(0.999388 -0.000581675 0)
(0.998959 0.000138243 0)
(0.999456 -7.81412e-05 0)
(0.999648 -0.000356532 0)
(0.999086 0.000325794 0)
(0.998935 0.000959293 0)
(0.999443 0.000892444 0)
(0.999673 0.000888558 0)
(0.999408 0.00144642 0)
(0.999334 0.00199735 0)
(0.999757 0.00214253 0)
(1.00027 0.00205987 0)
(1.00046 0.00213714 0)
(1.00046 0.00238469 0)
(1.0006 0.0025912 0)
(1.00088 0.00265216 0)
(1.00104 0.00269575 0)
(1.00096 0.00279791 0)
(0.99996 -0.000112657 0)
(0.999982 -0.000544497 0)
(0.999518 -0.000572953 0)
(0.999068 7.72594e-05 0)
(0.999437 4.19085e-05 0)
(0.999714 -0.000257456 0)
(0.999279 0.000234318 0)
(0.999033 0.000886725 0)
(0.999415 0.000973717 0)
(0.999729 0.000922155 0)
(0.999588 0.00131011 0)
(0.999463 0.0018502 0)
(0.999746 0.00210271 0)
(1.00021 0.00209597 0)
(1.00048 0.00210336 0)
(1.00054 0.00225652 0)
(1.00064 0.00241847 0)
(1.00088 0.00250402 0)
(1.00106 0.00253334 0)
(1.00102 0.00264079 0)
(0.999963 -0.000106907 0)
(0.999984 -0.000437492 0)
(0.999625 -0.000538549 0)
(0.999186 1.76978e-05 0)
(0.999435 0.000129098 0)
(0.999753 -0.000146638 0)
(0.999451 0.000176602 0)
(0.99916 0.000795254 0)
(0.999414 0.00101032 0)
(0.999752 0.000984521 0)
(0.999734 0.00121412 0)
(0.999612 0.00169176 0)
(0.999782 0.00200472 0)
(1.00016 0.00208474 0)