/*--------------------------------*- C++ -*----------------------------------*\
| =========                 |                                                 |
| \\      /  F ield         | OpenFOAM: The Open Source CFD Toolbox           |
|  \\    /   O peration     | Version:  3.0.1                                 |
|   \\  /    A nd           | Web:      www.OpenFOAM.org                      |
|    \\/     M anipulation  |                                                 |
\*---------------------------------------------------------------------------*/
FoamFile
{
    version     2.0;
    format      ascii;
    class       volScalarField;
    location    "4";
    object      p;
}
// * * * * * * * * * * * * * * * * * * * * * * * * * * * * * * * * * * * * * //

dimensions      [0 2 -2 0 0 0 0];

internalField   nonuniform List<scalar> 
9600
(
-9.18661e-11
-0.000697174
-0.00460618
-8.67108e-05
0.00251704
-0.00258932
-0.00146324
0.00347984
0.00120649
0.00259918
0.00412048
0.00470655
0.00508347
0.00419877
0.00516565
0.00699288
0.00678335
0.00811632
0.00939933
0.0123124
-2.30571e-06
-0.000693226
-0.00458768
-0.000106332
0.00248297
-0.00258462
-0.00145198
0.00348048
0.00121001
0.00259275
0.00411955
0.00470056
0.00506617
0.00420306
0.0051717
0.00697668
0.00682192
0.00807134
0.00942547
0.012032
-3.66853e-06
-0.000689167
-0.00457311
-0.000141014
0.00244855
-0.0025714
-0.00144388
0.00347488
0.00121539
0.00257914
0.00411733
0.00469726
0.00506355
0.00421045
0.00517902
0.00695114
0.00686116
0.00801513
0.00943455
0.0116837
-4.73732e-06
-0.000687232
-0.0045606
-0.000162608
0.00241588
-0.00254601
-0.00143167
0.00346385
0.00122387
0.00256452
0.00411392
0.00470181
0.0050589
0.00422
0.0051864
0.00692016
0.00689792
0.00795754
0.00941593
0.0113553
-7.01941e-06
-0.000686635
-0.00454133
-0.000169537
0.00237672
-0.00250114
-0.00140942
0.00344609
0.00123731
0.00254891
0.00410832
0.00470972
0.005051
0.0042309
0.00519426
0.0068862
0.00693436
0.00789709
0.00937379
0.0110522
-1.13752e-05
-0.000686078
-0.00450975
-0.000169521
0.00232981
-0.00243409
-0.00137402
0.003423
0.00125593
0.00253029
0.00410019
0.00471809
0.00504223
0.00424164
0.00520275
0.00685193
0.00696958
0.00783365
0.0093132
0.0107696
-1.81712e-05
-0.000684471
-0.00446302
-0.000167414
0.00227767
-0.00234761
-0.00132525
0.00339767
0.00127878
0.00250892
0.0040912
0.00472619
0.00503397
0.00425123
0.00521198
0.00681853
0.00700152
0.0077698
0.00923524
0.0105006
-2.71639e-05
-0.000680943
-0.00440028
-0.000164642
0.00222331
-0.00224769
-0.0012648
0.00337238
0.00130497
0.00248651
0.00408292
0.0047335
0.00502654
0.0042595
0.00522146
0.00678653
0.00702872
0.0077072
0.00913856
0.010242
-3.75064e-05
-0.000675018
-0.00432221
-0.00016104
0.00216869
-0.00214098
-0.00119523
0.00334799
0.00133418
0.0024645
0.00407584
0.00473937
0.00501994
0.00426636
0.00523038
0.00675667
0.00704948
0.00764558
0.00902335
0.00999284
-4.81208e-05
-0.000666781
-0.0042304
-0.000155662
0.00211427
-0.00203295
-0.00111935
0.00332437
0.00136647
0.00244355
0.00406986
0.0047433
0.00501388
0.00427159
0.00523796
0.00672958
0.00706198
0.0075844
0.00889215
0.00975119
-5.82324e-05
-0.000656642
-0.00412674
-0.00014782
0.00205944
-0.00192716
-0.00103969
0.00330109
0.00140189
0.00242376
0.00406483
0.00474502
0.00500774
0.0042751
0.00524337
0.00670543
0.0070652
0.00752343
0.00874759
0.00951323
-6.7483e-05
-0.000644999
-0.00401324
-0.000137601
0.00200346
-0.00182545
-0.000958076
0.00327791
0.00144027
0.00240486
0.00406076
0.00474441
0.00500086
0.00427736
0.00524563
0.00668433
0.007059
0.00746112
0.00859164
0.00927572
-7.58312e-05
-0.000632088
-0.00389192
-0.00012563
0.00194591
-0.0017284
-0.000875517
0.00325494
0.00148119
0.00238639
0.00405778
0.00474163
0.00499269
0.00427893
0.00524397
0.00666638
0.00704351
0.00739465
0.00842682
0.00903754
-8.33616e-05
-0.000618
-0.0037646
-0.000112665
0.00188676
-0.00163577
-0.000792337
0.00323252
0.00152412
0.00236783
0.004056
0.0047371
0.00498272
0.00428037
0.00523799
0.00665135
0.00701934
0.00732113
0.00825611
0.0087988
-9.01426e-05
-0.000602783
-0.00363275
-9.92494e-05
0.00182644
-0.00154687
-0.000708479
0.00321109
0.00156853
0.00234877
0.00405551
0.00473149
0.00497045
0.00428219
0.00522673
0.00664505
0.00698832
0.00723838
0.00808183
0.00856004
-9.617e-05
-0.000586509
-0.00349739
-8.55649e-05
0.00176562
-0.00146082
-0.000623757
0.00319103
0.00161398
0.00232896
0.00405626
0.00472554
0.00495547
0.00428493
0.00521074
0.00663389
0.00695265
0.00714509
0.00790508
0.00832244
-0.000101371
-0.000569264
-0.00335923
-7.15545e-05
0.001705
-0.00137679
-0.000538043
0.00317265
0.00166017
0.0023084
0.00405809
0.00471994
0.00493746
0.00428908
0.00518995
0.00662094
0.00691365
0.0070403
0.00772601
0.00808825
-0.000105622
-0.00055112
-0.00321872
-5.70895e-05
0.00164514
-0.00129408
-0.000451327
0.00315618
0.00170688
0.00228719
0.0040607
0.00471534
0.00491623
0.00429451
0.00516544
0.00660464
0.00687186
0.00692413
0.00754423
0.00786017
-0.000108774
-0.000532122
-0.00307619
-4.20274e-05
0.00158652
-0.0012122
-0.000363736
0.00314181
0.00175399
0.00226544
0.00406368
0.00471233
0.00489171
0.00430054
0.00513854
0.00658404
0.00682776
0.00679778
0.00735865
0.00764033
-0.000110665
-0.000512288
-0.00293187
-2.62186e-05
0.00152951
-0.00113083
-0.000275532
0.00312972
0.00180139
0.00224324
0.00406663
0.00471135
0.00486389
0.00430631
0.00510979
0.006558
0.00678183
0.00666326
0.00716788
0.0074299
-0.000111135
-0.000491601
-0.002786
-9.51604e-06
0.00147435
-0.00104973
-0.000187031
0.00311998
0.00184905
0.00222073
0.00406918
0.00471268
0.00483291
0.00431107
0.00507952
0.00652566
0.00673427
0.00652291
0.00697087
0.00722887
-0.000110029
-0.000470008
-0.00263881
8.23053e-06
0.00142122
-0.000968753
-9.85091e-05
0.00311263
0.00189694
0.00219798
0.00407106
0.00471634
0.00479896
0.0043144
0.00504806
0.00648624
0.00668477
0.006379
0.00676722
0.00703655
-0.000107197
-0.000447418
-0.0024906
2.71849e-05
0.00137024
-0.000887823
-1.0226e-05
0.00310771
0.00194511
0.00217496
0.0040721
0.00472232
0.00476214
0.00431596
0.00501543
0.00643889
0.00663298
0.00623366
0.00655665
0.00685193
-0.000102462
-0.000423673
-0.00234168
4.75358e-05
0.00132151
-0.00080686
7.75696e-05
0.00310518
0.00199379
0.00215153
0.00407208
0.00473091
0.00472251
0.00431524
0.00498203
0.0063827
0.00657873
0.0060894
0.00633845
0.00667287
-9.55835e-05
-0.000398572
-0.00219243
6.94988e-05
0.0012751
-0.000725798
0.000164726
0.00310479
0.00204343
0.00212768
0.0040704
0.00474248
0.00468016
0.00431134
0.00494859
0.00631742
0.00652119
0.00594915
0.00611232
0.00649461
-8.68551e-05
-0.000371863
-0.00204323
9.32722e-05
0.00123116
-0.000644567
0.000251183
0.00310622
0.00209459
0.00210347
0.00406607
0.00475755
0.00463544
0.00430278
0.0049158
0.00624361
0.00645865
0.00581601
0.00588047
0.00630964
-7.60995e-05
-0.000343203
-0.00189443
0.000119014
0.00118985
-0.000563146
0.000336993
0.00310912
0.00214767
0.00207913
0.00405799
0.0047767
0.00458919
0.00428787
0.00488416
0.00616221
0.00638868
0.00569249
0.00564897
0.00611008
-6.33424e-05
-0.000312186
-0.00174638
0.000146858
0.0011514
-0.000481602
0.000422352
0.00311291
0.00220278
0.00205526
0.00404505
0.00480007
0.00454266
0.0042652
0.00485388
0.00607474
0.00630852
0.0055789
0.00542657
0.00589306
-4.86248e-05
-0.000278355
-0.00159938
0.00017689
0.00111612
-0.000400109
0.000507543
0.00311718
0.00225985
0.00203258
0.00402609
0.00482714
0.00449742
0.00423367
0.00482462
0.00598374
0.00621622
0.00547157
0.00522093
0.0056654
-3.2033e-05
-0.000241235
-0.00145365
0.000209097
0.00108438
-0.000318923
0.000592869
0.0031218
0.00231874
0.00201195
0.00400016
0.00485688
0.00445514
0.0041924
0.00479493
0.00589261
0.00611236
0.00536439
0.00503477
0.00544083
-1.36936e-05
-0.000200381
-0.0013093
0.000243392
0.00105663
-0.000238494
0.00067842
0.0031268
0.00238096
0.00199454
0.00396694
0.0048877
0.00441706
0.00414104
0.00476277
0.0058038
0.00600013
0.00525321
0.00486313
0.00522984
6.2402e-06
-0.000155351
-0.0011663
0.000279618
0.00103346
-0.00015943
0.000764078
0.00313258
0.00246866
0.0019813
0.00392662
0.0049179
0.00438401
0.00407987
0.00472658
0.00571835
0.0058823
0.00513815
0.00469982
0.00503369
2.76285e-05
-0.000105724
-0.00102451
0.000317484
0.00101561
-8.21432e-05
0.00084953
0.00313933
0.00253216
0.0019723
0.00387935
0.00494615
0.00435706
0.00400916
0.004685
0.00563786
0.00576005
0.00502077
0.00454392
0.0048471
5.03845e-05
-5.12182e-05
-0.000883578
0.000356522
0.00100392
-6.60951e-06
0.000933793
0.00314775
0.00259223
0.00196746
0.00382513
0.00497127
0.00433744
0.00392894
0.00463549
0.00556496
0.00563535
0.00489935
0.0043991
0.00466771
7.44285e-05
8.18581e-06
-0.000742814
0.000396142
0.00099909
6.75414e-05
0.00101536
0.00315882
0.00265163
0.00196624
0.00376385
0.00499217
0.00432637
0.0038398
0.00457378
0.00550172
0.005514
0.00476925
0.00426551
0.00450119
9.97856e-05
7.23341e-05
-0.000601311
0.000435834
0.00100126
0.000140855
0.00109265
0.00317289
0.00271031
0.00196809
0.00369498
0.00500732
0.00432568
0.00374388
0.00449498
0.00544715
0.00540521
0.0046281
0.00413559
0.00435521
0.000126604
0.000140796
-0.000458018
0.000475361
0.00101006
0.000214648
0.00116416
0.00318933
0.00277064
0.00197294
0.00361763
0.00501444
0.0043371
0.0036458
0.00439546
0.00539566
0.00531704
0.00448192
0.00399804
0.00422914
0.000155057
0.000212776
-0.000311699
0.0005148
0.00102455
0.000291024
0.00122903
0.00320653
0.00283453
0.00198154
0.00353137
0.00501023
0.00436139
0.00355176
0.00427363
0.00533864
0.00525299
0.00434333
0.00384541
0.00411245
0.000185595
0.000287299
-0.000161276
0.000554611
0.00104314
0.000372005
0.00128693
0.00322195
0.00290391
0.00199592
0.00343593
0.00499068
0.0043978
0.00346825
0.00413088
0.00526775
0.00521108
0.00422457
0.00367892
0.00399014
0.000218868
0.000363162
-6.09947e-06
0.00059569
0.00106374
0.000459389
0.0013385
0.00323256
0.00297915
0.00201832
0.00333174
0.00495156
0.00444422
0.00340202
0.0039712
0.00517614
0.00518627
0.00413478
0.00350709
0.00384904
0.000255666
0.000438947
0.00015388
0.000638755
0.00108388
0.000554664
0.001386
0.00323508
0.00305786
0.00205243
0.00322162
0.00488888
0.00449638
0.00335956
0.00380042
0.00505773
0.00517156
0.00408033
0.00334202
0.00368285
0.000297001
0.000513424
0.000317998
0.000688417
0.00110149
0.000657727
0.00143245
0.00322652
0.00313937
0.00210194
0.00310941
0.00480023
0.00454777
0.0033459
0.00362732
0.00490828
0.00515714
0.00406474
0.00319742
0.00349291
0.000343727
0.000585597
0.000485077
0.000747512
0.00111564
0.000767373
0.00148101
0.00320437
0.00321802
0.00216851
0.0030004
0.00468669
0.00459052
0.003361
0.0034635
0.00472833
0.00513051
0.00408675
0.00308811
0.00328809
0.000396814
0.000654678
0.000652929
0.000819031
0.00112611
0.000881145
0.00153547
0.00316838
0.00328584
0.00225196
0.0029023
0.00455247
0.00461711
0.00340029
0.00331878
0.00452355
0.00507902
0.00413752
0.00302711
0.00308526
0.000457307
0.000720374
0.000818409
0.0009065
0.00113249
0.000989095
0.00160105
0.00312573
0.00333944
0.00235039
0.00282164
0.00440235
0.00462257
0.0034581
0.00319901
0.00430235
0.0049943
0.00420225
0.00302111
0.00290651
0.000525927
0.000782868
0.000978152
0.00101088
0.00113659
0.00108885
0.00168051
0.00308407
0.00337199
0.00245574
0.00276179
0.00424286
0.00460501
0.00352776
0.00310791
0.00407374
0.0048733
0.00426489
0.00306665
0.00277203
0.00060334
0.000843187
0.00112827
0.00113225
0.00114365
0.00117416
0.00177115
0.0030509
0.00338532
0.00255762
0.00272275
0.00408304
0.00456515
0.00360267
0.00304776
0.00384731
0.00471668
0.00431085
0.00315187
0.00269544
0.000689847
0.000902949
0.0012655
0.00127025
0.00116041
0.00123963
0.00186648
0.00303251
0.00338194
0.00264956
0.00270332
0.00392973
0.00450487
0.00367648
0.00301915
0.00363396
0.00452869
0.0043284
0.00326103
0.00268019
0.000785306
0.000964286
0.00138758
0.00142118
0.00119431
0.00128476
0.00195611
0.00303196
0.00337394
0.00273087
0.00269748
0.00378421
0.00442726
0.00374441
0.00302057
0.00344406
0.00431741
0.0043089
0.00337757
0.0027194
0.00088943
0.00102975
0.00149287
0.001579
0.00125232
0.00131211
0.00202946
0.00304833
0.00337334
0.00280288
0.00269966
0.00364701
0.0043344
0.00380377
0.00304943
0.00328549
0.00409437
0.00424862
0.00348542
0.00279932
0.00100161
0.00110197
0.001581
0.00173638
0.00133821
0.0013296
0.00207899
0.00307599
0.00338743
0.00286948
0.00270854
0.0035189
0.00422724
0.00384991
0.00310189
0.0031634
0.0038721
0.00415038
0.00357193
0.00290494
0.00112071
0.00118342
0.00165347
0.00188442
0.00145274
0.00134958
0.00210064
0.00310309
0.00341906
0.00294036
0.00272576
0.00340098
0.00410765
0.00387692
0.00317115
0.00308172
0.00366259
0.0040207
0.00362894
0.00302307
0.00124508
0.00127522
0.00171425
0.00201599
0.00159318
0.00138606
0.00209565
0.00311591
0.00346776
0.00302344
0.00275292
0.00329493
0.00397881
0.00388125
0.00324727
0.00304239
0.00347935
0.00386886
0.00365095
0.00314239
0.00137307
0.00137755
0.00176849
0.0021277
0.00175133
0.00144887
0.00207169
0.00310373
0.00352574
0.00312247
0.00279659
0.00320387
0.0038437
0.00386191
0.00332024
0.00303913
0.00333417
0.00370933
0.00363543
0.00325122
0.00150286
0.00149047
0.00182122
0.00221741
0.0019151
0.00154327
0.00204506
0.00306176
0.00357322
0.00323566
0.00286378
0.00313345
0.00370747
0.00381874
0.00338261
0.00306027
0.00323079
0.00356
0.0035874
0.00333752
0.0016327
0.00161289
0.00187809
0.00228551
0.00207238
0.00166886
0.00203378
0.00299375
0.00359361
0.00335684
0.00295551
0.00309175
0.00357824
0.00375264
0.00342902
0.00309705
0.00316336
0.00343389
0.00352099
0.00339375
0.00176155
0.00174292
0.0019429
0.00233597
0.00221501
0.00181925
0.00204944
0.00291306
0.0035797
0.00346971
0.00306879
0.00308444
0.00346611
0.0036703
0.00345328
0.00314215
0.00312473
0.00333325
0.00345173
0.00342138
0.00188855
0.00187785
0.00201852
0.00237498
0.00233824
0.00198222
0.00209741
0.00283734
0.0035334
0.00355674
0.0031979
0.00311275
0.0033813
0.0035835
0.00345289
0.00318682
0.0031114
0.00325658
0.00338968
0.00343032
0.00201323
0.00201364
0.00210637
0.00241037
0.00244011
0.00214504
0.00217672
0.0027811
0.00345962
0.00360762
0.00332745
0.00317289
0.00333015
0.00350292
0.00343361
0.00322166
0.00311888
0.00320386
0.00333768
0.00343205
0.00213592
0.0021478
0.00220533
0.00244857
0.00252188
0.00229886
0.00228021
0.00275258
0.00337766
0.00362363
0.00344054
0.00325865
0.00331632
0.00343931
0.00340641
0.00324275
0.003137
0.00317482
0.00329557
0.00343216
0.00225708
0.0022786
0.00231214
0.00249421
0.00258821
0.00243775
0.00239809
0.00275476
0.00330645
0.00361095
0.0035268
0.00335528
0.00333646
0.00340114
0.00338061
0.00325482
0.0031564
0.00316607
0.00326619
0.00343126
0.0023768
0.00240508
0.00242317
0.00254949
0.0026454
0.00255885
0.00252083
0.00278582
0.00325572
0.00358105
0.00358556
0.00344817
0.00338318
0.00339218
0.00336457
0.00326526
0.00317525
0.00317129
0.00325397
0.00343127
0.00249504
0.00252695
0.00253502
0.0026144
0.00269907
0.00266253
0.002641
0.00283988
0.00322938
0.00354916
0.00362217
0.00353056
0.00344618
0.00340992
0.00336484
0.00327937
0.00319681
0.00318467
0.00325863
0.0034383
0.00261152
0.00264422
0.00264499
0.0026875
0.00275325
0.00275142
0.00275357
0.00290934
0.00322864
0.00352636
0.00364321
0.00359938
0.00351673
0.00345014
0.00338516
0.00330261
0.00322488
0.00320462
0.00327448
0.00345634
0.00272546
0.00275695
0.0027516
0.0027662
0.00281045
0.00282933
0.00285602
0.00298671
0.00324982
0.00351914
0.0036593
0.00365634
0.00358884
0.00350809
0.00342601
0.00334015
0.00326379
0.00323539
0.0032991
0.00348481
0.00283588
0.0028652
0.0028541
0.00284749
0.00287133
0.00290013
0.00294814
0.00306765
0.00328941
0.00352881
0.00367967
0.00370801
0.00365978
0.00357859
0.0034854
0.00339385
0.0033172
0.00328148
0.00333598
0.00352337
0.0029419
0.00296837
0.00295192
0.00292942
0.00293522
0.00296628
0.0030306
0.00315155
0.00334322
0.00355518
0.00370847
0.00376038
0.00373182
0.00365893
0.00356267
0.00346421
0.00338602
0.00334506
0.0033884
0.00357241
0.00304281
0.00306625
0.00304411
0.00300982
0.00300099
0.00302984
0.0031047
0.00322983
0.00340499
0.00359651
0.00374872
0.00381809
0.00380975
0.00374981
0.00365828
0.00355448
0.00347193
0.00342727
0.00345967
0.00363468
0.00313718
0.00315766
0.00313059
0.00308726
0.00306653
0.00309132
0.00317594
0.00330393
0.00347001
0.00364953
0.00380117
0.003885
0.00389831
0.0038551
0.00377345
0.00366945
0.00358002
0.00353018
0.00355284
0.00371561
0.00322395
0.00324158
0.0032103
0.00316
0.00313062
0.00315031
0.00323937
0.00337355
0.00353779
0.00371177
0.00386437
0.00396335
0.00400099
0.00397948
0.00391358
0.00381697
0.00372169
0.00366163
0.00367183
0.00381833
0.0033029
0.0033189
0.00328122
0.003225
0.00319105
0.00320702
0.00329654
0.00343552
0.00360369
0.00378019
0.00393703
0.00405282
0.00411973
0.00412669
0.00408551
0.00400782
0.00391709
0.00384627
0.00383636
0.00395382
0.00337036
0.00338569
0.00334625
0.00328443
0.00324446
0.00325751
0.0033477
0.00349067
0.00366429
0.00385003
0.00401688
0.00415097
0.00425278
0.00429762
0.00429152
0.00424492
0.00417735
0.00411759
0.00409767
0.0041825
0.00342452
0.00344117
0.00340262
0.00333645
0.00329144
0.00330156
0.00339035
0.003533
0.00371296
0.00391573
0.00410505
0.00426763
0.00440305
0.00448357
0.00450997
0.00449662
0.00446425
0.0044409
0.00446263
0.00457736
0.00346949
0.00348634
0.00344235
0.00337318
0.00332747
0.00334067
0.00342685
0.00355982
0.00373072
0.00394442
0.00418694
0.00444573
0.00470094
0.00490121
0.00501099
0.00501674
0.00492773
0.00477934
0.0046462
0.00460892
0.00349968
0.00351699
0.0034685
0.00340121
0.00336182
0.00337001
0.00344801
0.00356892
0.0037145
0.00385544
0.0039785
0.00419214
0.00457729
0.005024
0.00541084
0.00571887
0.00600753
0.00630061
0.00657181
0.00676407
0.00350212
0.00352143
0.00349205
0.00344227
0.00342412
0.0034486
0.00351079
0.00358831
0.0037304
0.00403044
0.00447681
0.0049223
0.00526497
0.0055025
0.00568732
0.00583395
0.00595064
0.00607988
0.00621043
0.0062948
0.00348849
0.00350914
0.00346113
0.0033997
0.00336735
0.00339113
0.00353983
0.00383855
0.00418534
0.00444647
0.00460519
0.00475554
0.00497846
0.00523425
0.00553619
0.00588145
0.00626655
0.00664846
0.00698538
0.00721043
0.00342268
0.00348413
0.00351146
0.0035458
0.00364627
0.00380825
0.00399563
0.00416942
0.00434281
0.0045967
0.00488377
0.00513953
0.00536726
0.00552945
0.00560755
0.0056006
0.00549518
0.00531439
0.0050969
0.00492018
0.00328871
0.00333579
0.00347328
0.00363452
0.00378048
0.00388166
0.0039878
0.00413519
0.00433595
0.00455326
0.00479227
0.00499625
0.00522806
0.00551717
0.005819
0.0061577
0.00651604
0.00686192
0.00713541
0.00726046
0.00322177
0.00329477
0.00346877
0.00368276
0.00390148
0.0041525
0.00438356
0.00453039
0.00468862
0.00485756
0.00506765
0.00528613
0.00549459
0.00572514
0.00591112
0.00607458
0.0062333
0.00637915
0.00648301
0.00647573
0.015411
0.011066
0.00417847
-0.00116347
-0.00237666
-0.000999287
0.00052155
0.00142675
0.00199687
0.00253436
0.00301482
0.0033956
0.00378526
0.00422391
0.00460994
0.00490273
0.00523449
0.00569522
0.00616697
0.00653482
0.00682667
0.00711281
0.00745983
0.00788095
0.00828144
0.00859703
0.00889281
0.00923922
0.00962789
0.0100441
0.0104974
0.0109702
0.0114263
0.0118605
0.0122894
0.012728
0.0131631
0.0135596
0.0139133
0.0142805
0.0146915
0.0151116
0.0155191
0.0159456
0.0164144
0.016897
0.0173599
0.0178305
0.0183461
0.0188791
0.0193823
0.0198886
0.0204166
0.0209186
0.0214101
0.0219566
0.0225345
0.0231195
0.0237242
0.0243387
0.0249479
0.0255584
0.0261745
0.0268126
0.0274732
0.0281366
0.0288119
0.0295058
0.0302192
0.0309443
0.031693
0.0324453
0.0332137
0.0339948
0.0348045
0.0356305
0.0364766
0.0373378
0.0382103
0.0391008
0.0400008
0.0409293
0.0418656
0.0428332
0.0438063
0.044801
0.0458032
0.0468275
0.047873
0.0489391
0.0500196
0.0511233
0.0522315
0.0533767
0.0545076
0.0556727
0.0568086
0.0579244
0.0589532
0.0598321
0.0147788
0.0109313
0.0042659
-0.00101835
-0.00228835
-0.0009555
0.000548692
0.00144444
0.00200907
0.00254396
0.00302303
0.00340255
0.00379124
0.00422937
0.0046149
0.0049069
0.00523786
0.00569823
0.00616988
0.00653751
0.00682906
0.00711485
0.00746156
0.00788259
0.0082831
0.00859858
0.00889417
0.00924047
0.00962907
0.0100452
0.0104985
0.0109712
0.0114274
0.0118615
0.0122903
0.0127289
0.013164
0.0135605
0.0139141
0.0142813
0.0146922
0.0151124
0.0155198
0.0159463
0.0164151
0.0168976
0.0173605
0.0178311
0.0183466
0.0188796
0.0193828
0.019889
0.020417
0.020919
0.0214105
0.0219569
0.0225349
0.0231198
0.0237245
0.024339
0.0249482
0.0255587
0.0261748
0.0268128
0.0274734
0.0281368
0.0288121
0.029506
0.0302194
0.0309445
0.0316932
0.0324455
0.0332139
0.033995
0.0348047
0.0356307
0.0364768
0.0373379
0.0382104
0.039101
0.0400009
0.0409294
0.0418658
0.0428333
0.0438064
0.0448011
0.0458033
0.0468276
0.0478731
0.0489392
0.0500197
0.0511234
0.0522316
0.0533768
0.0545077
0.0556728
0.0568087
0.0579244
0.0589533
0.0598321
0.0141614
0.0107893
0.00443952
-0.00075332
-0.00214108
-0.000901879
0.000576697
0.00146666
0.0020264
0.00255694
0.00303293
0.0034103
0.00379759
0.00423494
0.00462
0.00491138
0.00524161
0.0057015
0.00617283
0.00654013
0.00683138
0.00711687
0.00746329
0.0078842
0.00828466
0.00859997
0.00889537
0.00924156
0.00963008
0.0100461
0.0104994
0.0109722
0.0114283
0.0118623
0.0122911
0.0127297
0.0131648
0.0135613
0.0139148
0.0142819
0.0146929
0.015113
0.0155204
0.0159468
0.0164156
0.0168982
0.017361
0.0178315
0.0183471
0.01888
0.0193833
0.0198894
0.0204174
0.0209194
0.0214108
0.0219572
0.0225352
0.0231201
0.0237248
0.0243393
0.0249484
0.025559
0.026175
0.026813
0.0274736
0.028137
0.0288123
0.0295062
0.0302196
0.0309447
0.0316934
0.0324456
0.033214
0.0339951
0.0348048
0.0356308
0.0364769
0.037338
0.0382106
0.0391011
0.040001
0.0409295
0.0418659
0.0428334
0.0438065
0.0448012
0.0458034
0.0468277
0.0478732
0.0489393
0.0500198
0.0511235
0.0522317
0.0533768
0.0545078
0.0556729
0.0568087
0.0579245
0.0589534
0.0598322
0.0135819
0.0106525
0.00466278
-0.00041834
-0.00194006
-0.000826849
0.000617004
0.00150071
0.00205409
0.0025773
0.00304764
0.00342149
0.00380626
0.00424181
0.00462623
0.00491766
0.00524751
0.00570633
0.00617653
0.00654325
0.00683445
0.00711984
0.00746584
0.00788632
0.0082865
0.00860161
0.0088968
0.00924279
0.00963115
0.0100471
0.0105004
0.0109732
0.0114293
0.0118632
0.0122919
0.0127305
0.0131656
0.0135621
0.0139156
0.0142826
0.0146935
0.0151136
0.015521
0.0159474
0.0164162
0.0168988
0.0173615
0.017832
0.0183475
0.0188805
0.0193837
0.0198898
0.0204178
0.0209198
0.0214112
0.0219575
0.0225355
0.0231204
0.0237251
0.0243396
0.0249487
0.0255592
0.0261752
0.0268133
0.0274738
0.0281372
0.0288125
0.0295063
0.0302198
0.0309449
0.0316936
0.0324458
0.0332142
0.0339953
0.034805
0.0356309
0.0364771
0.0373382
0.0382107
0.0391012
0.0400011
0.0409297
0.041866
0.0428335
0.0438067
0.0448013
0.0458035
0.0468278
0.0478733
0.0489394
0.0500198
0.0511235
0.0522318
0.0533769
0.0545078
0.0556729
0.0568088
0.0579246
0.0589535
0.0598323
0.0130219
0.0105024
0.00489432
-6.25004e-05
-0.00171599
-0.000740833
0.000663493
0.00154335
0.00209162
0.00260592
0.00306866
0.00343787
0.0038189
0.004251
0.00463413
0.00492643
0.00525656
0.00571358
0.00618141
0.00654711
0.00683872
0.00712452
0.00747001
0.00788949
0.00828902
0.00860392
0.00889891
0.00924449
0.00963244
0.0100482
0.0105015
0.0109743
0.0114303
0.0118642
0.0122929
0.0127314
0.0131665
0.0135629
0.0139164
0.0142833
0.0146942
0.0151143
0.0155217
0.0159481
0.0164168
0.0168994
0.0173621
0.0178326
0.0183481
0.018881
0.0193842
0.0198903
0.0204183
0.0209202
0.0214115
0.0219579
0.0225358
0.0231207
0.0237254
0.0243399
0.024949
0.0255595
0.0261755
0.0268135
0.0274741
0.0281374
0.0288127
0.0295065
0.03022
0.030945
0.0316937
0.032446
0.0332143
0.0339955
0.0348051
0.0356311
0.0364772
0.0373383
0.0382108
0.0391014
0.0400013
0.0409298
0.0418661
0.0428336
0.0438068
0.0448014
0.0458036
0.0468279
0.0478734
0.0489395
0.0500199
0.0511236
0.0522319
0.053377
0.0545079
0.055673
0.056809
0.0579247
0.0589538
0.0598325
0.0124736
0.0103283
0.00511709
0.000298018
-0.00147949
-0.000649505
0.000710339
0.0015885
0.00213403
0.0026397
0.00309449
0.00345889
0.00383548
0.00426273
0.00464385
0.00493769
0.00526874
0.00572331
0.00618752
0.00655173
0.00684425
0.00713116
0.00747613
0.00789398
0.00829246
0.00860732
0.00890222
0.00924706
0.0096342
0.0100497
0.0105029
0.0109755
0.0114313
0.0118653
0.0122941
0.0127325
0.0131674
0.0135639
0.0139173
0.0142842
0.0146949
0.015115
0.0155224
0.0159488
0.0164175
0.0169
0.0173628
0.0178333
0.0183487
0.0188816
0.0193848
0.0198909
0.0204189
0.0209207
0.0214119
0.0219583
0.0225362
0.0231211
0.0237258
0.0243403
0.0249494
0.0255598
0.0261758
0.0268138
0.0274744
0.0281377
0.028813
0.0295068
0.0302202
0.0309452
0.0316939
0.0324462
0.0332145
0.0339956
0.0348053
0.0356312
0.0364774
0.0373385
0.038211
0.0391015
0.0400014
0.0409299
0.0418662
0.0428338
0.0438069
0.0448015
0.0458037
0.046828
0.0478735
0.0489396
0.05002
0.0511237
0.052232
0.0533771
0.054508
0.0556731
0.0568091
0.0579249
0.0589541
0.0598328
0.0119398
0.0101321
0.00532729
0.000659772
-0.0012317
-0.000552746
0.000756756
0.00163419
0.002179
0.00267655
0.00312335
0.00348301
0.00385492
0.00427658
0.00465521
0.00495087
0.00528319
0.00573483
0.00619458
0.00655701
0.00685091
0.00713956
0.00748404
0.00789967
0.00829679
0.00861194
0.00890702
0.00925087
0.00963677
0.0100516
0.0105046
0.0109768
0.0114322
0.0118661
0.0122952
0.0127336
0.0131684
0.0135649
0.0139186
0.0142853
0.0146957
0.0151157
0.0155233
0.0159498
0.0164183
0.0169007
0.0173636
0.0178341
0.0183495
0.0188823
0.0193855
0.0198916
0.0204195
0.0209213
0.0214124
0.0219587
0.0225367
0.0231216
0.0237262
0.0243407
0.0249498
0.0255602
0.0261761
0.0268141
0.0274747
0.028138
0.0288133
0.029507
0.0302204
0.0309455
0.0316942
0.0324464
0.0332147
0.0339958
0.0348055
0.0356314
0.0364775
0.0373387
0.0382111
0.0391017
0.0400016
0.0409301
0.0418664
0.0428339
0.043807
0.0448017
0.0458038
0.0468281
0.0478736
0.0489397
0.0500202
0.0511238
0.0522321
0.0533772
0.0545082
0.0556732
0.0568093
0.0579252
0.0589546
0.0598331
0.0114278
0.00991812
0.00552089
0.00101971
-0.000971944
-0.00044803
0.000803923
0.0016803
0.00222612
0.00271594
0.00315442
0.00350916
0.00387633
0.00429212
0.00466792
0.00496539
0.00529904
0.00574744
0.00620227
0.00656281
0.00685845
0.00714928
0.00749323
0.00790617
0.00830174
0.00861758
0.00891326
0.00925604
0.00964037
0.0100544
0.0105069
0.0109784
0.0114331
0.0118669
0.0122961
0.0127346
0.0131692
0.0135659
0.0139201
0.0142869
0.0146968
0.0151165
0.0155244
0.015951
0.0164192
0.0169014
0.0173644
0.0178351
0.0183503
0.0188831
0.0193864
0.0198926
0.0204204
0.020922
0.021413
0.0219593
0.0225373
0.0231221
0.0237268
0.0243413
0.0249503
0.0255607
0.0261766
0.0268145
0.0274751
0.0281384
0.0288136
0.0295073
0.0302207
0.0309458
0.0316944
0.0324466
0.033215
0.033996
0.0348057
0.0356316
0.0364777
0.0373389
0.0382113
0.0391019
0.0400017
0.0409302
0.0418665
0.0428341
0.0438072
0.0448018
0.045804
0.0468283
0.0478738
0.0489398
0.0500203
0.051124
0.0522322
0.0533773
0.0545083
0.0556734
0.0568095
0.0579256
0.0589553
0.0598336
0.0109434
0.00968769
0.00569262
0.00137573
-0.00069832
-0.00033222
0.000853028
0.00172645
0.00227491
0.0027576
0.00318739
0.00353693
0.00389932
0.00430907
0.00468175
0.00498089
0.00531583
0.00576085
0.00621052
0.00656908
0.00686663
0.00715987
0.00750326
0.00791319
0.00830705
0.00862385
0.00892053
0.00926238
0.00964502
0.010058
0.0105099
0.0109804
0.0114341
0.0118675
0.0122968
0.0127351
0.0131695
0.0135667
0.0139218
0.0142888
0.0146982
0.0151175
0.0155258
0.0159525
0.0164202
0.0169021
0.0173654
0.0178362
0.0183512
0.0188838
0.0193873
0.0198937
0.0204213
0.0209228
0.0214137
0.02196
0.0225379
0.0231227
0.0237274
0.0243419
0.024951
0.0255613
0.0261771
0.0268151
0.0274756
0.0281388
0.0288141
0.0295078
0.0302211
0.0309461
0.0316948
0.0324469
0.0332152
0.0339963
0.0348059
0.0356319
0.0364779
0.0373391
0.0382115
0.0391021
0.0400019
0.0409304
0.0418667
0.0428342
0.0438074
0.044802
0.0458041
0.0468284
0.0478739
0.04894
0.0500204
0.0511241
0.0522323
0.0533775
0.0545085
0.0556735
0.0568098
0.0579261
0.0589562
0.0598343
0.0104881
0.00944265
0.00584051
0.00172741
-0.00040969
-0.000203585
0.00090423
0.00177157
0.00232454
0.00280132
0.00322228
0.00356635
0.00392387
0.00432736
0.00469657
0.00499721
0.00533349
0.00577507
0.00621936
0.00657581
0.00687532
0.0071711
0.00751391
0.0079206
0.00831258
0.00863048
0.00892843
0.00926954
0.00965055
0.0100625
0.0105135
0.0109827
0.0114353
0.0118683
0.0122975
0.0127354
0.0131693
0.0135671
0.0139236
0.0142911
0.0146998
0.0151189
0.0155276
0.0159545
0.0164216
0.0169029
0.0173664
0.0178375
0.0183521
0.0188844
0.0193882
0.0198948
0.0204224
0.0209238
0.0214147
0.0219609
0.0225387
0.0231234
0.023728
0.0243426
0.0249517
0.025562
0.0261778
0.0268157
0.0274762
0.0281394
0.0288146
0.0295083
0.0302216
0.0309465
0.0316952
0.0324473
0.0332156
0.0339966
0.0348062
0.0356321
0.0364782
0.0373393
0.0382118
0.0391023
0.0400021
0.0409306
0.0418669
0.0428344
0.0438076
0.0448022
0.0458043
0.0468286
0.0478741
0.0489401
0.0500206
0.0511243
0.0522325
0.0533776
0.0545087
0.0556737
0.0568102
0.0579267
0.0589572
0.059835
0.0100618
0.00918841
0.00596538
0.00207256
-0.000108179
-6.16667e-05
0.000957935
0.00181509
0.00237443
0.00284714
0.00325944
0.00359767
0.00395005
0.00434698
0.00471238
0.00501442
0.0053521
0.00579016
0.00622884
0.00658298
0.00688445
0.00718286
0.0075251
0.0079284
0.00831835
0.00863737
0.00893676
0.00927728
0.00965674
0.0100675
0.0105176
0.0109854
0.0114368
0.0118693
0.0122982
0.0127354
0.0131686
0.013567
0.0139251
0.0142935
0.0147017
0.0151204
0.0155297
0.0159568
0.0164232
0.0169039
0.0173676
0.0178389
0.018353
0.0188848
0.019389
0.0198959
0.0204234
0.0209248
0.021416
0.0219621
0.0225396
0.0231242
0.0237287
0.0243433
0.0249525
0.0255628
0.0261786
0.0268165
0.027477
0.0281402
0.0288153
0.0295089
0.0302221
0.0309471
0.0316957
0.0324478
0.033216
0.033997
0.0348065
0.0356324
0.0364785
0.0373396
0.038212
0.0391025
0.0400023
0.0409308
0.0418671
0.0428346
0.0438078
0.0448024
0.0458045
0.0468288
0.0478743
0.0489403
0.0500208
0.0511245
0.0522327
0.0533778
0.0545089
0.0556739
0.0568107
0.0579275
0.0589585
0.059836
0.00966542
0.00893166
0.00606695
0.0024059
0.000202769
9.4895e-05
0.0010161
0.00185719
0.00242412
0.00289502
0.00329914
0.00363116
0.00397799