/*--------------------------------*- C++ -*----------------------------------*\
| =========                 |                                                 |
| \\      /  F ield         | OpenFOAM: The Open Source CFD Toolbox           |
|  \\    /   O peration     | Version:  3.0.1                                 |
|   \\  /    A nd           | Web:      www.OpenFOAM.org                      |
|    \\/     M anipulation  |                                                 |
\*---------------------------------------------------------------------------*/
FoamFile
{
    version     2.0;
    format      ascii;
    class       surfaceScalarField;
    location    "4";
    object      phi;
}
// * * * * * * * * * * * * * * * * * * * * * * * * * * * * * * * * * * * * * //

dimensions      [0 3 -1 0 0 0 0];

internalField   nonuniform List<scalar> 
19000
(
1.15281e-06
-1.69379e-07
1.21017e-06
-5.69523e-07
1.28801e-06
-3.3721e-07
1.16389e-06
1.23647e-06
1.06277e-06
3.71768e-07
1.13543e-06
-5.54869e-07
1.19906e-06
-1.10241e-06
1.19685e-06
-4.15765e-08
1.2017e-06
2.26197e-08
1.17479e-06
5.62155e-07
1.17349e-06
2.73569e-07
1.15219e-06
2.053e-07
1.14337e-06
8.33563e-09
1.15533e-06
-2.98038e-08
1.15708e-06
-1.51778e-07
1.15501e-06
-4.94007e-08
1.16665e-06
3.63652e-08
1.15759e-06
7.52661e-08
1.15769e-06
1.22721e-07
1.12949e-07
1.13265e-06
1.20758e-06
-1.527e-07
1.2639e-06
-6.25842e-07
1.34795e-06
-4.21259e-07
1.24208e-06
1.34234e-06
1.12834e-06
4.8551e-07
1.19097e-06
-6.17497e-07
1.25981e-06
-1.17124e-06
1.26082e-06
-4.2595e-08
1.26412e-06
1.93207e-08
1.24411e-06
5.82165e-07
1.23516e-06
2.82518e-07
1.22405e-06
2.16411e-07
1.20546e-06
2.69249e-08
1.22398e-06
-4.83242e-08
1.21591e-06
-1.43704e-07
1.22402e-06
-5.75083e-08
1.2181e-06
4.22789e-08
1.23078e-06
6.25934e-08
1.20285e-06
1.50643e-07
9.80923e-08
1.21771e-06
1.26337e-06
-1.33284e-07
1.31679e-06
-6.79262e-07
1.40685e-06
-5.11326e-07
1.33821e-06
1.41099e-06
1.2092e-06
6.14525e-07
1.25244e-06
-6.60747e-07
1.32144e-06
-1.24024e-06
1.33314e-06
-5.42965e-08
1.32842e-06
2.40441e-08
1.32312e-06
5.87469e-07
1.30262e-06
3.03016e-07
1.30275e-06
2.16282e-07
1.2738e-06
5.58718e-08
1.29244e-06
-6.69653e-08
1.27911e-06
-1.30377e-07
1.28813e-06
-6.65209e-08
1.28106e-06
4.93482e-08
1.28963e-06
5.40208e-08
1.27447e-06
1.65804e-07
1.05575e-07
1.26699e-06
1.32015e-06
-1.09334e-07
1.36841e-06
-7.27524e-07
1.46415e-06
-6.07064e-07
1.44027e-06
1.43487e-06
1.30137e-06
7.53423e-07
1.31984e-06
-6.79216e-07
1.38037e-06
-1.30077e-06
1.40513e-06
-7.90564e-08
1.39438e-06
3.47941e-08
1.39931e-06
5.82537e-07
1.37379e-06
3.28538e-07
1.3753e-06
2.14771e-07
1.34613e-06
8.50431e-08
1.35432e-06
-7.51613e-08
1.34425e-06
-1.20304e-07
1.34819e-06
-7.04566e-08
1.34674e-06
5.07996e-08
1.35005e-06
5.07076e-08
1.34413e-06
1.7172e-07
1.18687e-07
1.33102e-06
1.37901e-06
-7.99861e-08
1.41939e-06
-7.67908e-07
1.51876e-06
-7.06432e-07
1.53709e-06
1.41654e-06
1.4007e-06
8.89811e-07
1.39197e-06
-6.70486e-07
1.43598e-06
-1.34478e-06
1.47116e-06
-1.14233e-07
1.46146e-06
4.44982e-08
1.46988e-06
5.74111e-07
1.4471e-06
3.51322e-07
1.4438e-06
2.18067e-07
1.41945e-06
1.094e-07
1.41632e-06
-7.20312e-08
1.40842e-06
-1.12408e-07
1.4099e-06
-7.19383e-08
1.41087e-06
4.98312e-08
1.41319e-06
4.83863e-08
1.41151e-06
1.73399e-07
1.31578e-07
1.39862e-06
1.44214e-06
-4.64526e-08
1.47169e-06
-7.97459e-07
1.57059e-06
-8.05327e-07
1.62135e-06
1.36578e-06
1.50229e-06
1.00887e-06
1.46763e-06
-6.35827e-07
1.49054e-06
-1.36769e-06
1.53143e-06
-1.55128e-07
1.52985e-06
4.60813e-08
1.53902e-06
5.64939e-07
1.52203e-06
3.68315e-07
1.51392e-06
2.26174e-07
1.49321e-06
1.30109e-07
1.48269e-06
-6.15147e-08
1.47335e-06
-1.03066e-07
1.47375e-06
-7.2333e-08
1.47547e-06
4.81095e-08
1.47734e-06
4.65179e-08
1.47898e-06
1.71754e-07
1.43149e-07
1.46741e-06
1.51199e-06
-1.22289e-08
1.52819e-06
-8.1366e-07
1.62094e-06
-8.98072e-07
1.69217e-06
1.29454e-06
1.6014e-06
1.09964e-06
1.54649e-06
-5.80916e-07
1.54777e-06
-1.36897e-06
1.58972e-06
-1.97075e-07
1.59915e-06
3.66444e-08
1.61038e-06
5.53712e-07
1.5984e-06
3.80298e-07
1.58794e-06
2.36631e-07
1.56864e-06
1.49411e-07
1.55412e-06
-4.70003e-08
1.54193e-06
-9.0868e-08
1.54043e-06
-7.08358e-08
1.54238e-06
4.61603e-08
1.54339e-06
4.55039e-08
1.54751e-06
1.67638e-07
1.52794e-07
1.53786e-06
1.58986e-06
1.80435e-08
1.59164e-06
-8.15439e-07
1.67203e-06
-9.78463e-07
1.75356e-06
1.21301e-06
1.69476e-06
1.15844e-06
1.62862e-06
-5.14778e-07
1.61093e-06
-1.35128e-06
1.64973e-06
-2.35869e-07
1.66853e-06
1.78464e-08
1.68402e-06
5.38217e-07
1.67568e-06
3.88641e-07
1.66516e-06
2.47146e-07
1.64653e-06
1.68046e-07
1.63004e-06
-3.0509e-08
1.61535e-06
-7.6181e-08
1.61115e-06
-6.6635e-08
1.61272e-06
4.45879e-08
1.61255e-06
4.56744e-08
1.61816e-06
1.62031e-07
1.60431e-07
1.61052e-06
1.67505e-06
4.05709e-08
1.66359e-06
-8.03979e-07
1.72636e-06
-1.04124e-06
1.81088e-06
1.1285e-06
1.78135e-06
1.18797e-06
1.71367e-06
-4.47092e-07
1.68175e-06
-1.31936e-06
1.71394e-06
-2.68068e-07
1.73773e-06
-5.93922e-09
1.7582e-06
5.17746e-07
1.75297e-06
3.93877e-07
1.74412e-06
2.55993e-07
1.72676e-06
1.85403e-07
1.70975e-06
-1.35008e-08
1.69362e-06
-6.00451e-08
1.68657e-06
-5.95879e-08
1.68727e-06
4.38921e-08
1.68557e-06
4.73737e-08
1.69176e-06
1.55833e-07
1.66313e-07
1.68588e-06
1.76536e-06
5.39332e-08
1.74409e-06
-7.82713e-07
1.78641e-06
-1.08356e-06
1.8687e-06
1.04621e-06
1.86242e-06
1.19424e-06
1.80084e-06
-3.85508e-07
1.7603e-06
-1.27882e-06
1.78398e-06
-2.91749e-07
1.80779e-06
-2.97426e-08
1.83199e-06
4.93542e-07
1.82981e-06
3.9606e-07
1.8239e-06
2.61897e-07
1.80895e-06
2.00353e-07
1.79273e-06
2.7215e-09
1.7764e-06
-4.37186e-08
1.76686e-06
-5.00463e-08
1.76648e-06
4.42749e-08
1.76302e-06
5.08336e-08
1.76896e-06
1.4989e-07
1.70763e-07
1.76451e-06
1.85852e-06
5.9164e-08
1.8321e-06
-7.56295e-07
1.85421e-06
-1.10566e-06
1.93038e-06
9.70044e-07
1.94077e-06
1.18385e-06
1.88961e-06
-3.34346e-07
1.84565e-06
-1.23486e-06
1.86086e-06
-3.06959e-07
1.88077e-06
-4.96597e-08
1.90638e-06
4.67933e-07
1.90695e-06
3.95487e-07
1.90463e-06
2.64219e-07
1.89302e-06
2.11963e-07
1.87863e-06
1.71197e-08
1.86338e-06
-2.84691e-08
1.85203e-06
-3.87001e-08
1.85068e-06
4.56257e-08
1.84554e-06
5.5976e-08
1.85051e-06
1.44913e-07
1.7406e-07
1.84722e-06
1.95335e-06
5.8653e-08
1.92616e-06
-7.29102e-07
1.93093e-06
-1.11043e-06
1.99836e-06
9.02615e-07
2.01973e-06
1.16248e-06
1.98016e-06
-2.94776e-07
1.93649e-06
-1.1912e-06
1.94483e-06
-3.15298e-07
1.95891e-06
-6.37329e-08
1.9837e-06
4.43142e-07
1.98626e-06
3.92927e-07
1.98735e-06
2.63122e-07
1.97944e-06
2.19879e-07
1.9674e-06
2.91549e-08
1.95426e-06
-1.53271e-08
1.94202e-06
-2.64607e-08
1.94008e-06
4.75665e-08
1.93372e-06
6.23387e-08
1.93729e-06
1.41335e-07
1.7639e-07
1.93496e-06
2.04996e-06
5.48831e-08
2.02497e-06
-7.04114e-07
2.01656e-06
-1.10202e-06
2.07422e-06
8.44955e-07
2.10224e-06
1.13446e-06
2.07329e-06
-2.65823e-07
2.03184e-06
-1.14975e-06
2.03547e-06
-3.18933e-07
2.04364e-06
-7.18964e-08
2.0663e-06
4.20479e-07
2.06989e-06
3.89333e-07
2.0736e-06
2.59412e-07
2.06914e-06
2.24342e-07
2.05942e-06
3.88754e-08
2.04894e-06
-4.85102e-09
2.03674e-06
-1.42536e-08
2.03469e-06
4.96126e-08
2.02786e-06
6.91722e-08
2.02995e-06
1.39245e-07
1.7784e-07
2.0285e-06
2.14917e-06
4.97125e-08
2.1277e-06
-6.82641e-07
2.11022e-06
-1.08455e-06
2.15867e-06
7.96511e-07
2.19038e-06
1.10275e-06
2.17004e-06
-2.45478e-07
2.1312e-06
-1.11091e-06
2.13199e-06
-3.19728e-07
2.13536e-06
-7.52657e-08
2.15566e-06
4.00177e-07
2.15958e-06
3.85417e-07
2.16487e-06
2.54119e-07
2.16328e-06
2.25932e-07
2.15538e-06
4.67766e-08
2.14757e-06
2.95925e-09
2.13609e-06
-2.77623e-09
2.13429e-06
5.1417e-08
2.12779e-06
7.56758e-08
2.12859e-06
1.38443e-07
1.78451e-07
2.12798e-06
2.25196e-06
4.42449e-08
2.23401e-06
-6.64694e-07
2.21076e-06
-1.0613e-06
2.25167e-06
7.556e-07
2.28529e-06
1.06913e-06
2.27131e-06
-2.31505e-07
2.2346e-06
-1.0742e-06
2.23372e-06
-3.18844e-07
2.23377e-06
-7.53156e-08
2.25222e-06
3.81727e-07
2.25621e-06
3.81423e-07
2.26221e-06
2.48116e-07
2.26285e-06
2.25291e-07
2.2561e-06
5.35277e-08
2.25051e-06
8.55268e-09
2.24011e-06
7.62795e-09
2.23857e-06
5.29491e-08
2.23301e-06
8.12356e-08
2.23287e-06
1.3859e-07
1.78308e-07
2.23301e-06
2.35912e-06
3.90044e-08
2.344e-06
-6.49574e-07
2.31728e-06
-1.03458e-06
2.35283e-06
7.20043e-07
2.3874e-06
1.03457e-06
2.37778e-06
-2.21883e-07
2.34237e-06
-1.0388e-06
2.34033e-06
-3.16799e-07
2.33835e-06
-7.33409e-08
2.35572e-06
3.64357e-07
2.35995e-06
3.77193e-07
2.36612e-06
2.41955e-07
2.36846e-06
2.22948e-07
2.36227e-06
5.97203e-08
2.35821e-06
1.26082e-08
2.34892e-06
1.69197e-08
2.34738e-06
5.44847e-08
2.34307e-06
8.55516e-08
2.34229e-06
1.39365e-07
1.77598e-07
2.343e-06
2.47124e-06
3.4161e-08
2.45803e-06
-6.36368e-07
2.42931e-06
-1.00586e-06
2.46163e-06
6.8772e-07
2.49672e-06
9.99474e-07
2.48981e-06
-2.14969e-07
2.45497e-06
-1.00395e-06
2.45189e-06
-3.13721e-07
2.44881e-06
-7.02609e-08
2.46577e-06
3.47393e-07
2.47057e-06
3.72392e-07
2.47663e-06
2.359e-07
2.4803e-06
2.19278e-07
2.47429e-06
6.57335e-08
2.47107e-06
1.58239e-08
2.46277e-06
2.52186e-08
2.46084e-06
5.64124e-08
2.45773e-06
8.86702e-08
2.4566e-06
1.40491e-07
1.76614e-07
2.45758e-06
2.58875e-06
2.97038e-08
2.57662e-06
-6.24239e-07
2.54677e-06
-9.76008e-07
2.57757e-06
6.56921e-07
2.61304e-06
9.64008e-07
2.60761e-06
-2.09539e-07
2.57283e-06
-9.69173e-07
2.56871e-06
-3.09598e-07
2.56509e-06
-6.66429e-08
2.58206e-06
3.30417e-07
2.58773e-06
3.66724e-07
2.5936e-06
2.30032e-07
2.59833e-06
2.14549e-07
2.59235e-06
7.17156e-08
2.58939e-06
1.87785e-08
2.58193e-06
3.26763e-08
2.57931e-06
5.90384e-08
2.57708e-06
9.08948e-08
2.57586e-06
1.41712e-07
1.75672e-07
2.5768e-06
2.71198e-06
2.55477e-08
2.7003e-06
-6.12555e-07
2.66984e-06
-9.45547e-07
2.70026e-06
6.26499e-07
2.73608e-06
9.28189e-07
2.7313e-06
-2.04757e-07
2.69636e-06
-9.34233e-07
2.69118e-06
-3.04416e-07
2.68734e-06
-6.28011e-08
2.70449e-06
3.13261e-07
2.71117e-06
3.60047e-07
2.71686e-06
2.24343e-07
2.72242e-06
2.08983e-07
2.71649e-06
7.76477e-08
2.7134e-06
2.18645e-08
2.70666e-06
3.94243e-08
2.7032e-06
6.24965e-08
2.70147e-06
9.26277e-08
2.7004e-06
1.42778e-07
1.75021e-07
2.70105e-06
2.84122e-06
2.15923e-08
2.82957e-06
-6.00898e-07
2.79878e-06
-9.14757e-07
2.82943e-06
5.95849e-07
2.86564e-06
8.91975e-07
2.86099e-06
-2.00106e-07
2.82589e-06
-8.99137e-07
2.81969e-06
-2.98213e-07
2.81578e-06
-5.88915e-08
2.83312e-06
2.95922e-07
2.84078e-06
3.52388e-07
2.84633e-06
2.18795e-07
2.85252e-06
2.0279e-07
2.84675e-06
8.34174e-08
2.84331e-06
2.53024e-08
2.83717e-06
4.5566e-08
2.83292e-06
6.67486e-08
2.83132e-06
9.42311e-08
2.83062e-06
1.43477e-07
1.74771e-07
2.83087e-06
2.97674e-06
1.77492e-08
2.96486e-06
-5.89019e-07
2.93392e-06
-8.83816e-07
2.96498e-06
5.64791e-07
3.00165e-06
8.55302e-07
2.99684e-06
-1.95302e-07
2.96173e-06
-8.6402e-07
2.95459e-06
-2.91081e-07
2.95068e-06
-5.49769e-08
2.96814e-06
2.78463e-07
2.97665e-06
3.4388e-07
2.98208e-06
2.13359e-07
2.9887e-06
1.96174e-07
2.98321e-06
8.89059e-08
2.97934e-06
2.91708e-08
2.97371e-06
5.11943e-08
2.96884e-06
7.16247e-08
2.9671e-06
9.59732e-08
2.9669e-06
1.43669e-07
1.74873e-07
2.9668e-06
3.11881e-06
1.39498e-08
3.10656e-06
-5.76774e-07
3.07562e-06
-8.52877e-07
3.107e-06
5.33418e-07
3.14418e-06
8.18116e-07
3.13909e-06
-1.90205e-07
3.10414e-06
-8.29072e-07
3.09621e-06
-2.8315e-07
3.09229e-06
-5.10624e-08
3.10981e-06
2.6095e-07
3.11898e-06
3.34701e-07
3.1243e-06
2.08046e-07
3.13116e-06
1.89309e-07
3.12605e-06
9.40177e-08
3.12174e-06
3.34816e-08
3.11656e-06
5.63728e-08
3.11128e-06
7.69042e-08
3.10925e-06
9.80072e-08
3.1096e-06
1.43322e-07
1.75141e-07
3.10933e-06
3.26771e-06
1.0145e-08
3.25501e-06
-5.64069e-07
3.22425e-06
-8.22114e-07
3.25571e-06
5.01958e-07
3.29344e-06
7.80379e-07
3.288e-06
-1.84757e-07
3.2534e-06
-7.94477e-07
3.24484e-06
-2.7459e-07
3.24089e-06
-4.71122e-08
3.25841e-06
2.43434e-07
3.2681e-06
3.2501e-07
3.27323e-06
2.02915e-07
3.28022e-06
1.82318e-07
3.27554e-06
9.86986e-08
3.27079e-06
3.82239e-08
3.26603e-06
6.11353e-08
3.26057e-06
8.23673e-08
3.25817e-06
1.00401e-07
3.259e-06
1.42493e-07
1.75296e-07
3.25885e-06
3.42378e-06
6.30013e-09
3.41053e-06
-5.5082e-07
3.38014e-06
-7.9173e-07
3.41143e-06
4.70675e-07
3.44972e-06
7.42087e-07
3.44391e-06
-1.78949e-07
3.4098e-06
-7.60368e-07
3.4008e-06
-2.6559e-07
3.39675e-06
-4.30636e-08
3.41423e-06
2.25956e-07
3.42433e-06
3.14912e-07
3.42917e-06
1.98075e-07
3.43621e-06
1.75272e-07
3.43198e-06
1.0293e-07
3.42683e-06
4.33792e-08
3.42247e-06
6.54921e-08
3.417e-06
8.7838e-08
3.41425e-06
1.03153e-07
3.41544e-06
1.41305e-07
1.75042e-07
3.41569e-06
3.58732e-06
2.38994e-09
3.57343e-06
-5.36933e-07
3.54366e-06
-7.61954e-07
3.57452e-06
4.39813e-07
3.61335e-06
7.0326e-07
3.6072e-06
-1.72803e-07
3.57364e-06
-7.26812e-07
3.5644e-06
-2.56351e-07
3.56019e-06
-3.88475e-08
3.57758e-06
2.08563e-07
3.58806e-06
3.04437e-07
3.59247e-06
1.93665e-07
3.59953e-06
1.68207e-07
3.59575e-06
1.06716e-07
3.59021e-06
4.89155e-08
3.58622e-06
6.94796e-08
3.58093e-06
9.31304e-08
3.57782e-06
1.06259e-07
3.57921e-06
1.39922e-07
1.74114e-07
3.58013e-06
3.7587e-06
-1.60488e-09
3.74407e-06
-5.22302e-07
3.71513e-06
-7.33015e-07
3.74538e-06
4.09563e-07
3.78469e-06
6.63956e-07
3.77827e-06
-1.6639e-07
3.74526e-06
-6.93801e-07
3.73599e-06
-2.47076e-07
3.73153e-06
-3.4394e-08
3.74877e-06
1.9133e-07
3.75965e-06
2.93556e-07
3.76349e-06
1.89821e-07
3.77054e-06
1.61161e-07
3.7672e-06
1.10049e-07
3.76132e-06
5.4799e-08
3.75764e-06
7.31636e-08
3.7527e-06
9.80656e-08
3.74928e-06
1.09677e-07
3.75064e-06
1.38567e-07
1.72341e-07
3.75241e-06
3.93828e-06
-5.69859e-09
3.92281e-06
-5.0683e-07
3.89491e-06
-7.05115e-07
3.92442e-06
3.80051e-07
3.9641e-06
6.24276e-07
3.95754e-06
-1.5983e-07
3.92502e-06
-6.61275e-07
3.91589e-06
-2.37946e-07
3.91117e-06
-2.96754e-08
3.92812e-06
1.74381e-07
3.93947e-06
2.82198e-07
3.94266e-06
1.86637e-07
3.94961e-06
1.54215e-07
3.94677e-06
1.12884e-07
3.94054e-06
6.10273e-08
3.93708e-06
7.66232e-08
3.93267e-06
1.02477e-07
3.92905e-06
1.13302e-07
3.93011e-06
1.3751e-07
1.69704e-07
3.93274e-06
4.12645e-06
-9.89903e-09
4.11007e-06
-4.90449e-07
4.08335e-06
-6.78393e-07
4.11206e-06
3.51336e-07
4.15196e-06
5.8438e-07
4.14543e-06
-1.53297e-07
4.1133e-06
-6.29143e-07
4.10446e-06
-2.29114e-07
4.09949e-06
-2.47042e-08
4.11599e-06
1.57886e-07
4.1279e-06
2.70279e-07
4.1304e-06
1.84137e-07
4.13711e-06
1.47512e-07
4.13487e-06
1.15125e-07
4.12828e-06
6.76129e-08
4.12495e-06
7.99504e-08
4.12117e-06
1.06257e-07
4.11752e-06
1.16952e-07
4.11809e-06
1.36941e-07
1.66433e-07
4.12136e-06
4.32361e-06
-1.4205e-08
4.3063e-06
-4.73136e-07
4.28081e-06
-6.52907e-07
4.30875e-06
3.23397e-07
4.34863e-06
5.44495e-07
4.34236e-06
-1.47026e-07
4.31051e-06
-5.97295e-07
4.30209e-06
-2.20687e-07
4.29694e-06
-1.95577e-08
4.31277e-06
1.42055e-07
4.32531e-06
2.5774e-07
4.32718e-06
1.82268e-07
4.33343e-06
1.41258e-07
4.33191e-06
1.16652e-07
4.32498e-06
7.45388e-08
4.32168e-06
8.3252e-08
4.31856e-06
1.0938e-07
4.31507e-06
1.20436e-07
4.31517e-06
1.36848e-07
1.62955e-07
4.31864e-06
4.53017e-06
-1.86028e-08
4.51196e-06
-4.54928e-07
4.48768e-06
-6.28621e-07
4.51494e-06
2.96135e-07
4.55451e-06
5.04923e-07
4.54878e-06
-1.41289e-07
4.51711e-06
-5.65625e-07
4.50913e-06
-2.12707e-07
4.50397e-06
-1.44019e-08
4.51891e-06
1.27112e-07
4.53207e-06
2.44578e-07
4.53345e-06
1.80889e-07
4.53903e-06
1.35685e-07
4.53831e-06
1.17371e-07
4.53118e-06
8.16701e-08
4.52773e-06
8.67009e-08
4.52523e-06
1.1188e-07
4.52208e-06
1.23577e-07
4.52182e-06
1.3711e-07
1.59645e-07
4.52513e-06
4.74658e-06
-2.30631e-08
4.72757e-06
-4.35927e-07
4.70435e-06
-6.05395e-07
4.73112e-06
2.69358e-07
4.77003e-06
4.66015e-07
4.76511e-06
-1.36372e-07
4.73356e-06
-5.34072e-07
4.72598e-06
-2.05122e-07
4.72103e-06
-9.4504e-09
4.73488e-06
1.1326e-07
4.74862e-06
2.30841e-07
4.74968e-06
1.79829e-07
4.75437e-06
1.30992e-07
4.75448e-06
1.17262e-07
4.74737e-06
8.87809e-08
4.74359e-06
9.04828e-08
4.74166e-06
1.13811e-07
4.73894e-06
1.26289e-07
4.73851e-06
1.37547e-07
1.56649e-07
4.7415e-06
4.97327e-06
-2.75377e-08
4.95365e-06
-4.16306e-07
4.93123e-06
-5.82971e-07
4.95781e-06
2.42781e-07
4.99566e-06
4.28165e-07
4.99183e-06
-1.3255e-07
4.96042e-06
-5.02662e-07
4.95305e-06
-1.97753e-07
4.94856e-06
-4.95582e-09
4.96118e-06
1.00644e-07
4.9754e-06
2.16616e-07
4.9763e-06
1.78934e-07
4.97998e-06
1.27305e-07
4.98088e-06
1.1637e-07
4.97406e-06
9.5599e-08
4.96976e-06
9.47787e-08
4.96834e-06
1.15229e-07
4.96614e-06
1.28497e-07
4.9656e-06
1.38079e-07
1.53887e-07
4.96836e-06
5.21074e-06
-3.19582e-08
5.19074e-06
-3.96309e-07
5.16875e-06
-5.60985e-07
5.19549e-06
2.1604e-07
5.2319e-06
3.91759e-07
5.2294e-06
-1.30046e-07
5.19826e-06
-4.71525e-07
5.19085e-06
-1.90344e-07
5.187e-06
-1.10377e-09
5.19834e-06
8.93009e-08
5.21291e-06
2.02046e-07
5.2138e-06
1.78049e-07
5.21639e-06
1.24707e-07
5.21798e-06
1.14783e-07
5.21172e-06
1.01858e-07
5.20682e-06
9.9677e-08
5.20576e-06
1.16291e-07
5.2042e-06
1.30057e-07
5.20357e-06
1.3871e-07
1.51296e-07
5.20616e-06
5.45946e-06
-3.62335e-08
5.43941e-06
-3.76254e-07
5.41739e-06
-5.3897e-07
5.4447e-06
1.88731e-07
5.47933e-06
3.57134e-07
5.47819e-06
-1.28912e-07
5.44766e-06
-4.4099e-07
5.43989e-06
-1.8258e-07
5.43679e-06
1.99695e-09
5.44692e-06
7.91747e-08
5.46166e-06
1.87308e-07
5.46269e-06
1.77016e-07
5.46414e-06
1.23263e-07
5.46628e-06
1.1264e-07
5.46086e-06
1.07277e-07
5.45537e-06
1.05162e-07
5.45437e-06
1.17295e-07
5.45366e-06
1.30762e-07
5.45294e-06
1.3944e-07
1.48927e-07
5.4553e-06
5.71998e-06
-4.0253e-08
5.70025e-06
-3.56522e-07
5.67767e-06
-5.16397e-07
5.70595e-06
1.60456e-07
5.73855e-06
3.2453e-07
5.7386e-06
-1.28961e-07
5.70919e-06
-4.11583e-07
5.7008e-06
-1.74183e-07
5.69841e-06
4.38279e-09
5.70745e-06
7.01403e-08
5.72219e-06
1.72569e-07
5.72353e-06
1.75673e-07
5.72378e-06
1.23011e-07
5.72626e-06
1.10165e-07
5.72193e-06
1.11603e-07
5.71607e-06
1.1102e-07
5.71474e-06
1.18628e-07
5.71491e-06
1.30588e-07
5.7144e-06
1.39951e-07
1.47022e-07
5.71631e-06
5.99283e-06
-4.38894e-08
5.97386e-06
-3.37553e-07
5.9502e-06
-4.92738e-07
5.97975e-06
1.3091e-07
6.01027e-06
2.9401e-07
6.01103e-06
-1.29728e-07
5.98342e-06
-3.83969e-07
5.97426e-06
-1.65026e-07
5.97237e-06
6.27226e-09
5.98046e-06
6.20556e-08
5.99505e-06
1.5797e-07
5.99687e-06
1.73862e-07
5.99593e-06
1.23949e-07
5.99842e-06
1.07675e-07
5.99545e-06
1.14575e-07
5.98952e-06
1.16947e-07
5.98753e-06
1.20617e-07
5.98841e-06
1.29705e-07
5.9885e-06
1.39868e-07
1.45643e-07
5.98987e-06
6.2786e-06
-4.70051e-08
6.26088e-06
-3.19833e-07
6.23572e-06
-4.67577e-07
6.26659e-06
1.00045e-07
6.2952e-06
2.65396e-07
6.29601e-06
-1.30534e-07
6.27082e-06
-3.58782e-07
6.26101e-06
-1.55214e-07
6.25925e-06
8.03493e-09
6.26647e-06
5.48287e-08
6.28083e-06
1.43615e-07
6.28323e-06
1.71467e-07
6.28118e-06
1.25997e-07
6.28339e-06
1.05465e-07
6.2819e-06
1.16061e-07
6.27627e-06
1.22579e-07
6.27351e-06
1.23377e-07
6.27468e-06
1.28531e-07
6.27571e-06
1.38839e-07
1.44619e-07
6.27674e-06
6.57793e-06
-4.94657e-08
6.56195e-06
-3.03857e-07
6.53504e-06
-4.40659e-07
6.56692e-06
6.81567e-08
6.59406e-06
2.3826e-07
6.59417e-06
-1.30647e-07
6.57173e-06
-3.36341e-07
6.56164e-06
-1.45122e-07
6.55959e-06
1.00833e-08
6.56597e-06
4.84466e-08
6.58002e-06
1.29567e-07
6.5831e-06
1.68385e-07
6.58015e-06
1.28955e-07
6.58181e-06
1.03801e-07
6.58179e-06
1.1608e-07
6.57686e-06
1.27506e-07
6.57342e-06
1.26818e-07
6.57443e-06
1.27529e-07
6.57645e-06
1.36816e-07
1.43482e-07
6.57759e-06
6.89147e-06
-5.11444e-08
6.87767e-06
-2.9006e-07
6.84894e-06
-4.11922e-07
6.88115e-06
3.59442e-08
6.90749e-06
2.1192e-07
6.90619e-06
-1.29351e-07
6.88643e-06
-3.16573e-07
6.87648e-06
-1.35179e-07
6.87397e-06
1.25999e-08
6.87942e-06
4.29898e-08
6.8931e-06
1.15887e-07
6.89701e-06
1.64473e-07
6.89346e-06
1.32506e-07
6.89437e-06
1.02893e-07
6.89565e-06
1.14795e-07
6.89185e-06
1.31306e-07
6.88796e-06
1.30711e-07
6.88842e-06
1.27072e-07
6.89123e-06
1.34009e-07
1.41756e-07
6.89295e-06
7.21993e-06
-5.19406e-08
7.20856e-06
-2.78686e-07
7.17825e-06
-3.81614e-07
7.20969e-06
4.50686e-09
7.236e-06
1.85602e-07
7.23282e-06
-1.26164e-07
7.21558e-06
-2.99336e-07
7.20635e-06
-1.25953e-07
7.20324e-06
1.57121e-08
7.20751e-06
3.87183e-08
7.22065e-06
1.0275e-07
7.22556e-06
1.59561e-07
7.22179e-06
1.36277e-07
7.22178e-06
1.02901e-07
7.2241e-06
1.12477e-07
7.22178e-06
1.3363e-07
7.21776e-06
1.34728e-07
7.21749e-06
1.27338e-07
7.22065e-06
1.30853e-07
1.39109e-07
7.2233e-06
7.56408e-06
-5.17925e-08
7.55519e-06
-2.69797e-07
7.52384e-06
-3.50263e-07
7.5533e-06
-2.49558e-08
7.58031e-06
1.58597e-07
7.57501e-06
-1.20867e-07
7.5598e-06
-2.84126e-07
7.55195e-06
-1.18108e-07
7.5483e-06
1.93711e-08
7.55101e-06
3.60077e-08
7.5634e-06
9.03597e-08
7.56942e-06
1.53536e-07
7.56587e-06
1.39823e-07
7.56487e-06
1.03902e-07
7.56781e-06
1.09541e-07
7.56721e-06
1.34225e-07
7.56346e-06
1.38479e-07
7.56245e-06
1.28353e-07
7.5655e-06
1.27803e-07
1.35515e-07
7.56909e-06
7.92471e-06
-5.06895e-08
7.91819e-06
-2.63278e-07
7.88659e-06
-3.18669e-07
7.91275e-06
-5.11133e-08
7.94147e-06
1.29882e-07
7.9345e-06
-1.139e-07
7.92048e-06
-2.70101e-07
7.91453e-06
-1.1216e-07
7.90992e-06
2.3978e-08
7.91064e-06
3.52893e-08
7.92209e-06
7.89075e-08
7.92932e-06
1.46302e-07
7.92644e-06
1.42709e-07
7.92447e-06
1.05875e-07
7.92753e-06
1.06482e-07
7.92874e-06
1.33012e-07
7.92574e-06
1.41482e-07
7.92407e-06
1.30016e-07
7.92664e-06
1.25239e-07
1.31201e-07
7.93095e-06
8.30267e-06
-4.86807e-08
8.29822e-06
-2.58823e-07
8.26742e-06
-2.87866e-07
8.28894e-06
-7.26413e-08
8.32066e-06
9.81665e-08
8.31369e-06
-1.06935e-07
8.29876e-06
-2.55169e-07
8.29313e-06
-1.06529e-07
8.28826e-06
2.88532e-08
8.28735e-06
3.6195e-08
8.29763e-06
6.86303e-08
8.30604e-06
1.3789e-07
8.30419e-06
1.44555e-07
8.30143e-06
1.08635e-07
8.30412e-06
1.03794e-07
8.30698e-06
1.30148e-07
8.3052e-06
1.43265e-07
8.30315e-06
1.32065e-07
8.30498e-06
1.2341e-07
1.26565e-07
8.30962e-06
8.69884e-06
-4.58616e-08
8.69604e-06
-2.56016e-07
8.66718e-06
-2.59011e-07
8.68348e-06
-8.89405e-08
8.7161e-06
6.55487e-08
8.70499e-06
-9.58279e-08
8.68858e-06
-2.38756e-07
8.68703e-06
-1.04977e-07
8.68445e-06
3.14316e-08
8.68236e-06
3.82867e-08
8.69096e-06
6.00301e-08
8.70041e-06
1.28437e-07
8.69992e-06
1.45048e-07
8.69668e-06
1.11869e-07
8.69865e-06
1.0183e-07
8.70273e-06
1.26064e-07
8.70252e-06
1.43478e-07
8.7005e-06
1.3408e-07
8.70152e-06
1.22395e-07
1.22112e-07
8.70597e-06
9.11417e-06
-4.2409e-08
9.11246e-06
-2.54311e-07
9.08641e-06
-2.32961e-07
9.09595e-06
-9.84808e-08
9.12807e-06
3.34261e-08
9.11958e-06
-8.73338e-08
9.10101e-06
-2.20189e-07
9.10054e-06
-1.045e-07
9.09983e-06
3.21396e-08
9.09665e-06
4.14667e-08
9.10308e-06
5.35948e-08
9.1133e-06
1.18222e-07
9.11436e-06
1.43982e-07
9.11105e-06
1.15185e-07
9.11212e-06
1.00757e-07
9.11687e-06
1.21319e-07
9.11835e-06
1.41993e-07
9.11681e-06
1.35618e-07
9.11717e-06
1.22037e-07
1.1827e-07
9.12101e-06
9.5496e-06
-3.85523e-08
9.54827e-06
-2.52982e-07
9.52613e-06
-2.10813e-07
9.52985e-06
-1.02209e-07
9.56108e-06
2.20103e-09
9.55533e-06
-8.15887e-08
9.53415e-06
-1.99003e-07
9.53313e-06
-1.03485e-07
9.53474e-06
3.05362e-08
9.53127e-06
4.49309e-08
9.53539e-06
4.94745e-08
9.54566e-06
1.07953e-07
9.54842e-06
1.41228e-07
9.54543e-06
1.18171e-07
9.54561e-06
1.00577e-07
9.55048e-06
1.1645e-07
9.55356e-06
1.38915e-07
9.55285e-06
1.36321e-07
9.55284e-06
1.22045e-07
1.15232e-07
9.55588e-06
1.00061e-05
-3.45629e-08
1.00045e-05
-2.51322e-07
9.98714e-06
-1.93468e-07
9.98569e-06
-1.00757e-07
1.00143e-05
-2.64557e-08
1.00124e-05
-7.96018e-08
9.9896e-06
-1.76242e-07
9.98618e-06
-1.00067e-07
9.98983e-06
2.68833e-08
9.9871e-06
4.76604e-08
9.98906e-06
4.75135e-08
9.99868e-06
9.83344e-08
1.0003e-05
1.36902e-07
1.00007e-05
1.2048e-07
1.00002e-05
1.01124e-07
1.00047e-05
1.11876e-07
1.00091e-05
1.34539e-07
1.00095e-05
1.35951e-07
1.00094e-05
1.22106e-07
1.12942e-07
1.00117e-05
1.04848e-05
-3.07417e-08
1.04822e-05
-2.4866e-07
1.047e-05
-1.81265e-07
1.04645e-05
-9.53194e-08
1.04889e-05
-5.08579e-08
1.04911e-05
-8.18249e-08
1.04683e-05
-1.53381e-07
1.04615e-05
-9.33133e-08
1.04662e-05
2.22518e-08
1.04647e-05
4.91083e-08
1.04652e-05
4.70495e-08
1.04737e-05
8.98372e-08
1.04792e-05
1.3139e-07
1.04778e-05
1.21871e-07
1.04768e-05
1.0215e-07
1.04807e-05
1.07897e-07
1.0486e-05
1.29241e-07
1.04876e-05
1.34368e-07
1.04878e-05
1.21954e-07
1.11183e-07
1.04895e-05
1.09867e-05
-2.73836e-08
1.09824e-05
-2.444e-07
1.09752e-05
-1.74088e-07
1.09673e-05
-8.74321e-08
1.09859e-05
-6.93736e-08
1.09919e-05
-8.78594e-08
1.09709e-05
-1.32375e-07
1.09608e-05
-8.32806e-08
1.09649e-05
1.81524e-08
1.09649e-05
4.91361e-08
1.09647e-05
4.73034e-08
1.09718e-05
8.27098e-08
1.09781e-05
1.2508e-07
1.09777e-05
1.22249e-07
1.09765e-05
1.03378e-07
1.09797e-05
1.0467e-07
1.09855e-05
1.23458e-07
1.09883e-05
1.31534e-07
1.09889e-05
1.21395e-07
1.09676e-07
1.09904e-05
1.15127e-05
-2.47498e-08
1.15064e-05
-2.38115e-07
1.15037e-05
-1.71369e-07
1.14951e-05
-7.8795e-08
1.15067e-05
-8.09452e-08
1.1515e-05
-9.6235e-08
1.14979e-05
-1.15286e-07
1.14854e-05
-7.07171e-08
1.14877e-05
1.58414e-08
1.14888e-05
4.80211e-08
1.14884e-05
4.77616e-08
1.14942e-05
7.68641e-08
1.15009e-05
1.18349e-07
1.15016e-05
1.21577e-07
1.15004e-05
1.04589e-07
1.15029e-05
1.02182e-07
1.15087e-05
1.17612e-07
1.15127e-05
1.2754e-07
1.15139e-05
1.20255e-07
1.08225e-07
1.15153e-05
1.20641e-05
-2.3033e-08
1.20556e-05
-2.29624e-07
1.20563e-05
-1.72082e-07
1.20485e-05
-7.09679e-08
1.20529e-05
-8.53707e-08
1.20616e-05
-1.04914e-07
1.20498e-05
-1.03509e-07
1.20362e-05
-5.70848e-08
1.20361e-05
1.59426e-08
1.20376e-05
4.65544e-08
1.20372e-05
4.80814e-08
1.2042e-05
7.20632e-08
1.20489e-05
1.11523e-07
1.20506e-05
1.19851e-07
1.20496e-05
1.05583e-07
1.20514e-05
1.00361e-07
1.2057e-05
1.12054e-07
1.20619e-05
1.22617e-07
1.20638e-05
1.18355e-07
1.06709e-07
1.20653e-05
1.26419e-05
-2.23112e-08
1.26309e-05
-2.18681e-07
1.26335e-05
-1.7466e-07
1.26281e-05
-6.55513e-08
1.26263e-05
-8.36104e-08
1.26331e-05
-1.11659e-07
1.26269e-05
-9.73817e-08
1.26142e-05
-4.43361e-08
1.26116e-05
1.8546e-08
1.26125e-05
4.56201e-08
1.26125e-05
4.81504e-08
1.26164e-05
6.80926e-08
1.26232e-05
1.04754e-07
1.26259e-05
1.17162e-07
1.26254e-05
1.06101e-07
1.26266e-05
9.90908e-08
1.26316e-05
1.07058e-07
1.26372e-05
1.17089e-07
1.26399e-05
1.15592e-07
1.05008e-07
1.26416e-05
1.32472e-05
-2.25385e-08
1.32332e-05
-2.04764e-07
1.32366e-05
-1.77991e-07
1.32345e-05
-6.34478e-08
1.32286e-05
-7.77627e-08
1.32312e-05
-1.14201e-07
1.32298e-05
-9.60196e-08
1.32202e-05
-3.46892e-08
1.32155e-05
2.31602e-08
1.32154e-05
4.57821e-08
1.32153e-05
4.82567e-08
1.32186e-05
6.47731e-08
1.32252e-05
9.81515e-08
1.32287e-05
1.13648e-07
1.32288e-05
1.05969e-07
1.32298e-05
9.81208e-08
1.32341e-05
1.02791e-07
1.32399e-05
1.11318e-07
1.32435e-05
1.11957e-07
1.0298e-07
1.32455e-05
1.38812e-05
-2.36018e-08
1.38658e-05
-1.89374e-07
1.38682e-05
-1.80387e-07
1.3869e-05
-6.42403e-08
1.3861e-05
-6.97607e-08
1.38582e-05
-1.11412e-07
1.38594e-05
-9.71745e-08
1.38544e-05
-2.97412e-08
1.38492e-05
2.83969e-08
1.38476e-05
4.73451e-08
1.38471e-05
4.88097e-08
1.38499e-05
6.20079e-08
1.38562e-05
9.18113e-08
1.38604e-05
1.09401e-07
1.38612e-05
1.05165e-07
1.38622e-05
9.71394e-08
1.38658e-05
9.92323e-08
1.38714e-05
1.05712e-07
1.38758e-05
1.07566e-07
1.0048e-07
1.38783e-05
1.45453e-05
-2.52432e-08
1.45283e-05
-1.72413e-07
1.45293e-05
-1.81331e-07
1.4533e-05
-6.79732e-08
1.45246e-05
-6.13843e-08
1.45172e-05
-1.03958e-07
1.45177e-05
-9.76411e-08
1.45176e-05
-2.97084e-08
1.45137e-05
3.23282e-08
1.45107e-05
5.02963e-08
1.45095e-05
5.00706e-08
1.45116e-05
5.99208e-08
1.45175e-05
8.58876e-08
1.45225e-05
1.04424e-07
1.45239e-05
1.03696e-07
1.45251e-05
9.59955e-08
1.45282e-05
9.61163e-08
1.45333e-05
1.00587e-07
1.45382e-05
1.02702e-07
9.73852e-08
1.45413e-05
1.52408e-05
-2.71622e-08
1.52238e-05
-1.55425e-07
1.52218e-05
-1.79355e-07
1.52278e-05
-7.39068e-08
1.52207e-05
-5.43323e-08
1.521e-05
-9.32003e-08
1.52074e-05
-9.50646e-08
1.52107e-05
-3.30616e-08
1.52097e-05
3.33818e-08
1.52062e-05
5.38123e-08
1.52041e-05
5.21819e-08
1.52053e-05
5.8662e-08
1.52106e-05
8.05888e-08
1.52161e-05
9.89108e-08
1.52184e-05
1.01418e-07
1.52197e-05
9.47016e-08
1.52226e-05
9.3212e-08
1.52272e-05
9.59566e-08
1.52321e-05
9.77911e-08
9.36823e-08
1.52358e-05
1.59692e-05
-2.90243e-08
1.5953e-05
-1.39218e-07
1.59476e-05
-1.74007e-07
1.59547e-05
-8.09738e-08
1.595e-05
-4.9658e-08
1.59378e-05
-8.0932e-08
1.59315e-05
-8.88517e-08
1.59356e-05
-3.7086e-08
1.59379e-05
3.1014e-08
1.59352e-05
5.65298e-08
1.59323e-05
5.51277e-08
1.59327e-05
5.82867e-08
1.59372e-05
7.6037e-08
1.59428e-05
9.32707e-08
1.59461e-05
9.81862e-08
1.59477e-05
9.31282e-08
1.59504e-05
9.05014e-08
1.59547e-05
9.16174e-08
1.59594e-05
9.31279e-08
8.9581e-08
1.59635e-05
1.67321e-05
-3.05015e-08
1.67168e-05
-1.23977e-07
1.67084e-05
-1.65551e-07
1.67156e-05
-8.81707e-08
1.67136e-05
-4.7709e-08
1.67015e-05
-6.87947e-08
1.66923e-05
-7.96624e-08
1.66946e-05
-3.9374e-08
1.66998e-05
2.58364e-08
1.6699e-05
5.73123e-08
1.66957e-05
5.83954e-08
1.66952e-05
5.87641e-08
1.66989e-05
7.23742e-08
1.67043e-05
8.78268e-08
1.67083e-05
9.42112e-08
1.67105e-05
9.0962e-08
1.6713e-05
8.80134e-08
1.67171e-05
8.7473e-08
1.67216e-05
8.86693e-08
8.54096e-08
1.67258e-05
1.75313e-05
-3.13936e-08
1.75183e-05
-1.11058e-07
1.75071e-05
-1.54277e-07
1.75125e-05
-9.36162e-08
1.75129e-05
-4.8152e-08
1.75021e-05
-5.79555e-08
1.74912e-05
-6.87351e-08
1.74906e-05
-3.87674e-08
1.74969e-05
1.94887e-08
1.74985e-05
5.57466e-08
1.74959e-05
6.10314e-08
1.74947e-05
5.99327e-08
1.74974e-05
6.97033e-08
1.75025e-05
8.26646e-08
1.75068e-05
8.99614e-08
1.75097e-05
8.80567e-08
1.75122e-05
8.55338e-08
1.7516e-05
8.36555e-08
1.75204e-05
8.42087e-08
8.13692e-08
1.75245e-05
1.83686e-05
-3.15994e-08
1.83577e-05
-1.00234e-07
1.8345e-05
-1.41595e-07
1.83477e-05
-9.62921e-08
1.83497e-05
-5.01431e-08
1.83408e-05
-4.90453e-08
1.83294e-05
-5.7293e-08
1.8326e-05
-3.54266e-08
1.83316e-05
1.38755e-08
1.83353e-05
5.21251e-08
1.8334e-05
6.22433e-08
1.83325e-05
6.14282e-08
1.83343e-05
6.79132e-08
1.8339e-05
7.8021e-08
1.83434e-05
8.55609e-08
1.83467e-05
8.46959e-08
1.83496e-05
8.26865e-08
1.8353e-05
8.02202e-08
1.83574e-05
7.97905e-08
7.73593e-08
1.83615e-05
1.92459e-05
-3.11488e-08
1.92369e-05
-9.12136e-08
1.92239e-05
-1.28579e-07
1.92235e-05
-9.58592e-08
1.92259e-05
-5.25528e-08
1.92191e-05
-4.22815e-08
1.92081e-05