/*--------------------------------*- C++ -*----------------------------------*\
| =========                 |                                                 |
| \\      /  F ield         | OpenFOAM: The Open Source CFD Toolbox           |
|  \\    /   O peration     | Version:  3.0.1                                 |
|   \\  /    A nd           | Web:      www.OpenFOAM.org                      |
|    \\/     M anipulation  |                                                 |
\*---------------------------------------------------------------------------*/
FoamFile
{
    version     2.0;
    format      ascii;
    class       volVectorField;
    location    "4";
    object      U;
}
// * * * * * * * * * * * * * * * * * * * * * * * * * * * * * * * * * * * * * //

dimensions      [0 1 -1 0 0 0 0];

internalField   nonuniform List<vector> 
9600
(
(0.67718 -0.00184175 0)
(1.27203 -0.00575919 0)
(0.816395 -0.00323492 0)
(1.36836 0.0150781 0)
(0.653201 0.00405932 0)
(1.14252 -0.00766863 0)
(0.815824 -0.0175187 0)
(1.2218 -0.000761308 0)
(0.836628 0.00053346 0)
(1.21007 0.0117811 0)
(0.816013 0.0063852 0)
(1.1797 0.00484612 0)
(0.804169 -1.37919e-05 0)
(1.14105 -0.00059805 0)
(0.846996 -0.00504444 0)
(1.12552 -0.00173816 0)
(0.85645 0.0015896 0)
(1.13257 0.003184 0)
(0.852386 0.00528589 0)
(1.12398 0.00555111 0)
(0.691972 -0.00161369 0)
(1.25745 -0.00649875 0)
(0.823331 -0.00454723 0)
(1.35854 0.0163124 0)
(0.698962 0.00605581 0)
(1.12308 -0.00905149 0)
(0.836064 -0.0190888 0)
(1.20976 -0.000780253 0)
(0.859794 0.000370261 0)
(1.19358 0.0122398 0)
(0.853389 0.00642869 0)
(1.1526 0.00540327 0)
(0.857532 0.000454854 0)
(1.10165 -0.00112606 0)
(0.906269 -0.00490314 0)
(1.07478 -0.00188829 0)
(0.928119 0.00158201 0)
(1.05736 0.00271708 0)
(0.955472 0.00672309 0)
(1.00852 0.00416995 0)
(0.720884 -0.00143222 0)
(1.22806 -0.00717515 0)
(0.839039 -0.00561796 0)
(1.33584 0.0179043 0)
(0.774651 0.0078007 0)
(1.09392 -0.00997603 0)
(0.869702 -0.0202617 0)
(1.18098 -0.000807316 0)
(0.904087 0.000376414 0)
(1.15888 0.01267 0)
(0.914397 0.00683475 0)
(1.10922 0.00561261 0)
(0.92739 0.00112157 0)
(1.05362 -0.00182332 0)
(0.965298 -0.00446695 0)
(1.02804 -0.00229766 0)
(0.979538 0.00182551 0)
(1.01687 0.00238936 0)
(0.993508 0.007375 0)
(0.994018 0.00486387 0)
(0.762774 -0.00122778 0)
(1.1845 -0.00772791 0)
(0.86286 -0.0066887 0)
(1.29976 0.0186677 0)
(0.861996 0.00968358 0)
(1.06289 -0.0104229 0)
(0.908984 -0.0213285 0)
(1.13881 -0.00114903 0)
(0.954455 0.000575389 0)
(1.11633 0.0127034 0)
(0.971844 0.00742289 0)
(1.06925 0.00550831 0)
(0.978599 0.00198588 0)
(1.02303 -0.00225759 0)
(0.993607 -0.00408901 0)
(1.00758 -0.00251476 0)
(0.996323 0.0019684 0)
(1.00746 0.00221049 0)
(1.0012 0.00773104 0)
(0.998798 0.0057311 0)
(0.813825 -0.000958286 0)
(1.13189 -0.00821581 0)
(0.891481 -0.00785242 0)
(1.25252 0.0186677 0)
(0.9433 0.0116627 0)
(1.03898 -0.0104751 0)
(0.9433 -0.022192 0)
(1.0931 -0.00174701 0)
(0.994765 0.00081787 0)
(1.08011 0.0124959 0)
(1.00999 0.00799278 0)
(1.04472 0.00549193 0)
(1.00472 0.00273571 0)
(1.01136 -0.00230769 0)
(1.00067 -0.00382844 0)
(1.00077 -0.00257245 0)
(0.999052 0.00197601 0)
(1.00427 0.00207367 0)
(1.00301 0.00795246 0)
(1.0009 0.00643101 0)
(0.867447 -0.000634383 0)
(1.0791 -0.00861572 0)
(0.919718 -0.00903928 0)
(1.19961 0.0181804 0)
(1.00569 0.0134988 0)
(1.02694 -0.0101071 0)
(0.966237 -0.0227304 0)
(1.05361 -0.00246878 0)
(1.01786 0.000946028 0)
(1.05723 0.0122737 0)
(1.02938 0.00845465 0)
(1.0345 0.00564852 0)
(1.01539 0.00334316 0)
(1.00932 -0.0020673 0)
(1.00093 -0.00355228 0)
(0.997159 -0.00260518 0)
(0.998002 0.00192935 0)
(1.00116 0.00198477 0)
(1.00218 0.007972 0)
(1.00131 0.00701832 0)
(0.916215 -0.000285208 0)
(1.03552 -0.00887471 0)
(0.942514 -0.0101729 0)
(1.14802 0.0173511 0)
(1.04453 0.014992 0)
(1.02541 -0.00936737 0)
(0.978442 -0.0229059 0)
(1.02488 -0.00322592 0)
(1.02565 0.00086806 0)
(1.04557 0.0120618 0)
(1.03718 0.00879635 0)
(1.0319 0.00590179 0)
(1.0197 0.00388892 0)
(1.01044 -0.00165895 0)
(1.00075 -0.00319631 0)
(0.994728 -0.00259258 0)
(0.995862 0.00186184 0)
(0.998246 0.00192965 0)
(0.999885 0.00780886 0)
(1.00055 0.00753961 0)
(0.954534 4.75816e-05 0)
(1.00702 -0.00896605 0)
(0.957253 -0.0111982 0)
(1.10326 0.0163123 0)
(1.06227 0.0160436 0)
(1.02933 -0.00838433 0)
(0.984551 -0.0227434 0)
(1.00631 -0.00396212 0)
(1.02371 0.000572784 0)
(1.03921 0.0117847 0)
(1.0389 0.00903938 0)
(1.03142 0.0061807 0)
(1.02161 0.00442252 0)
(1.01215 -0.00117194 0)
(1.00129 -0.00275165 0)
(0.993551 -0.00248734 0)
(0.993831 0.00178151 0)
(0.995731 0.00190898 0)
(0.997325 0.00755669 0)
(0.998969 0.00798493 0)
(0.980338 0.000318327 0)
(0.993797 -0.0088929 0)
(0.964668 -0.0120542 0)
(1.06757 0.0151979 0)
(1.06481 0.0166454 0)
(1.03364 -0.00732112 0)
(0.988716 -0.0223074 0)
(0.995316 -0.00461137 0)
(1.01721 0.000125216 0)
(1.03348 0.0113948 0)
(1.03686 0.0092009 0)
(1.03015 0.00643711 0)
(1.02201 0.0049342 0)
(1.01349 -0.000658245 0)
(1.00231 -0.00223378 0)
(0.993423 -0.00228297 0)
(0.992509 0.00171674 0)
(0.993746 0.00195792 0)
(0.995023 0.00727466 0)
(0.997047 0.00832489 0)
(0.994964 0.00049872 0)
(0.9915 -0.00868932 0)
(0.967768 -0.0126825 0)
(1.04051 0.0140929 0)
(1.05837 0.0168709 0)
(1.0355 -0.00631632 0)
(0.992667 -0.0216845 0)
(0.989528 -0.00512103 0)
(1.00965 -0.000370193 0)
(1.02659 0.0109014 0)
(1.03199 0.00928552 0)
(1.02712 0.00662992 0)
(1.02092 0.00539022 0)
(1.01405 -0.000151191 0)
(1.00341 -0.00168575 0)
(0.993992 -0.0019826 0)
(0.991994 0.00169915 0)
(0.992434 0.00208908 0)
(0.993184 0.00698382 0)
(0.995162 0.00856156 0)
(1.00166 0.000586998 0)
(0.994464 -0.00840903 0)
(0.969738 -0.0130633 0)
(1.02063 0.0130477 0)
(1.0479 0.0168185 0)
(1.03448 -0.00545619 0)
(0.996357 -0.0209698 0)
(0.987179 -0.00547548 0)
(1.00314 -0.000817102 0)
(1.01893 0.0103502 0)
(1.02534 0.00929712 0)
(1.02256 0.00673268 0)
(1.01853 0.00576017 0)
(1.01367 0.000316755 0)
(1.00426 -0.00115872 0)
(0.994935 -0.00159744 0)
(0.992191 0.00172883 0)
(0.991894 0.00228878 0)
(0.992024 0.00671688 0)
(0.993682 0.00873218 0)
(1.00387 0.000604056 0)
(0.998409 -0.00810623 0)
(0.972396 -0.0132158 0)
(1.00653 0.0121041 0)
(1.03672 0.0165679 0)
(1.03151 -0.00477741 0)
(0.999288 -0.0202399 0)
(0.98686 -0.00568661 0)
(0.998543 -0.00115516 0)
(1.01174 0.00979588 0)
(1.01829 0.00925105 0)
(1.0173 0.00674098 0)
(1.0153 0.00602924 0)
(1.01247 0.000716768 0)
(1.00466 -0.000689774 0)
(0.995966 -0.00115808 0)
(0.99295 0.00178824 0)
(0.992151 0.00254367 0)
(0.991747 0.00651727 0)
(0.992954 0.00885928 0)
(1.00412 0.000576815 0)
(1.0013 -0.00781966 0)
(0.97598 -0.0131852 0)
(0.997037 0.011285 0)
(1.02676 0.0161976 0)
(1.02783 -0.00427022 0)
(1.00124 -0.0195353 0)
(0.987451 -0.00578945 0)
(0.995844 -0.00136848 0)
(1.00598 0.00927944 0)
(1.01207 0.00917127 0)
(1.01226 0.00667046 0)
(1.01189 0.00619665 0)
(1.01079 0.00104318 0)
(1.00463 -0.000305507 0)
(0.996866 -0.000711839 0)
(0.994061 0.00185947 0)
(0.993076 0.00283004 0)
(0.992364 0.00640182 0)
(0.993128 0.00893747 0)
(1.0038 0.000527605 0)
(1.00275 -0.00756854 0)
(0.979867 -0.0130254 0)
(0.99107 0.0105945 0)
(1.01887 0.015765 0)
(1.02433 -0.00390653 0)
(1.00235 -0.0188703 0)
(0.988208 -0.00582287 0)
(0.994504 -0.00147327 0)
(1.00195 0.00881676 0)
(1.00734 0.00907987 0)
(1.00813 0.00654801 0)
(1.0089 0.00627354 0)
(1.00905 0.00130693 0)
(1.00431 -1.1446e-05 0)
(0.99754 -0.000285385 0)
(0.995279 0.00193157 0)
(0.994389 0.00310926 0)
(0.993621 0.00635867 0)
(0.994046 0.00896436 0)
(1.00349 0.000471947 0)
(1.00315 -0.00735743 0)
(0.983364 -0.0127789 0)
(0.987614 0.0100187 0)
(1.01316 0.0153018 0)
(1.02148 -0.00365262 0)
(1.00289 -0.0182427 0)
(0.988774 -0.00581747 0)
(0.993904 -0.001499 0)
(0.99941 0.0084018 0)
(1.00417 0.00898899 0)
(1.00517 0.00639911 0)
(1.00665 0.00627842 0)
(1.00759 0.00152618 0)
(1.00392 0.000203945 0)
(0.998008 0.000116985 0)
(0.996403 0.00199958 0)
(0.995761 0.00334747 0)
(0.995113 0.00636723 0)
(0.995325 0.00895313 0)
(1.00332 0.000417034 0)
(1.00296 -0.00718077 0)
(0.986088 -0.0124779 0)
(0.985823 0.0095304 0)
(1.00938 0.0148224 0)
(1.01939 -0.00347729 0)
(1.00313 -0.017642 0)
(0.989075 -0.00578862 0)
(0.993601 -0.00147402 0)
(0.9979 0.00802016 0)
(1.00224 0.0088963 0)
(1.0033 0.00624297 0)
(1.00521 0.00622993 0)
(1.00659 0.00172167 0)
(1.00365 0.000351487 0)
(0.99835 0.000476536 0)
(0.997326 0.0020653 0)
(0.996951 0.00353288 0)
(0.996485 0.00641108 0)
(0.996573 0.00892153 0)
(1.00327 0.000366107 0)
(1.00254 -0.00702925 0)
(0.987984 -0.0121449 0)
(0.985078 0.00909834 0)
(1.0071 0.0143346 0)
(1.01796 -0.00335356 0)
(1.00325 -0.0170564 0)
(0.989189 -0.00574028 0)
(0.993388 -0.00142028 0)
(0.997029 0.00765608 0)
(1.00116 0.00879214 0)
(1.00228 0.00608973 0)
(1.00446 0.00614087 0)
(1.00603 0.0019067 0)
(1.00357 0.000458379 0)
(0.998641 0.000783364 0)
(0.998034 0.0021401 0)
(0.997865 0.00367216 0)
(0.997552 0.00647582 0)
(0.997549 0.00888345 0)
(1.00328 0.00031966 0)
(1.0021 -0.00689347 0)
(0.989195 -0.0117942 0)
(0.984958 0.00869555 0)
(1.00587 0.0138413 0)
(1.01699 -0.00325975 0)
(1.00332 -0.0164753 0)
(0.989231 -0.00567285 0)
(0.993216 -0.00135223 0)
(0.996539 0.00729548 0)
(1.00058 0.00866947 0)
(1.00179 0.0059431 0)
(1.00415 0.00601825 0)
(1.00579 0.00208766 0)
(1.00364 0.000556955 0)
(0.998924 0.00104866 0)
(0.998563 0.00223459 0)
(0.998523 0.00377648 0)
(0.998296 0.00654412 0)
(0.998201 0.00885048 0)
(1.0033 0.000276811 0)
(1.00172 -0.00676533 0)
(0.989931 -0.0114337 0)
(0.985188 0.00830281 0)
(1.00528 0.0133419 0)
(1.01633 -0.00318156 0)
(1.00337 -0.0158923 0)
(0.989293 -0.00558665 0)
(0.993101 -0.00127845 0)
(0.996292 0.006931 0)
(1.00025 0.00852413 0)
(1.00159 0.00580041 0)
(1.00408 0.00587119 0)
(1.00573 0.00226699 0)
(1.0038 0.000662289 0)
(0.99921 0.00128731 0)
(0.998956 0.00235529 0)
(0.998998 0.00385881 0)
(0.998794 0.00660221 0)
(0.998597 0.00883206 0)
(1.0033 0.00023649 0)
(1.00144 -0.00663913 0)
(0.990381 -0.0110677 0)
(0.985598 0.00790876 0)
(1.005 0.0128358 0)
(1.01581 -0.00310913 0)
(1.00339 -0.0153076 0)
(0.989428 -0.00548089 0)
(0.993062 -0.00120308 0)
(0.996216 0.00656211 0)
(1.00004 0.00835355 0)
(1.0015 0.00566051 0)
(1.00408 0.00570462 0)
(1.00573 0.00244199 0)
(1.00397 0.000779649 0)
(0.999486 0.00151269 0)
(0.999247 0.00250412 0)
(0.999362 0.00393252 0)
(0.99914 0.00664133 0)
(0.998841 0.00882935 0)
(1.00326 0.00019775 0)
(1.00126 -0.00651122 0)
(0.990683 -0.0106991 0)
(0.986095 0.00750909 0)
(1.00483 0.0123223 0)
(1.01535 -0.00303587 0)
(1.00338 -0.0147232 0)
(0.989651 -0.00535671 0)
(0.993099 -0.00112687 0)
(0.996272 0.00619057 0)
(0.999874 0.00816091 0)
(1.00146 0.00552299 0)
(1.00407 0.0055263 0)
(1.00572 0.0026084 0)
(1.00409 0.000906106 0)
(0.999741 0.00172439 0)
(0.99946 0.00267612 0)
(0.999666 0.00400913 0)
(0.999411 0.00665876 0)
(0.999022 0.00883575 0)
(1.00317 0.000159555 0)
(1.00116 -0.00637951 0)
(0.99092 -0.0103297 0)
(0.986637 0.00710428 0)
(1.00466 0.0118012 0)
(1.01489 -0.0029592 0)
(1.00333 -0.014139 0)
(0.989958 -0.00521913 0)
(0.993199 -0.00105037 0)
(0.996434 0.00581707 0)
(0.999728 0.0079516 0)
(1.00142 0.0053836 0)
(1.004 0.00534709 0)
(1.00568 0.0027645 0)
(1.00414 0.00104144 0)
(0.999965 0.00192281 0)
(0.999613 0.00286721 0)
(0.999941 0.00409507 0)
(0.999655 0.00665958 0)
(0.999193 0.00884503 0)
(1.00304 0.000121672 0)
(1.00112 -0.00624367 0)
(0.991134 -0.00996184 0)
(0.987208 0.00669635 0)
(1.00444 0.0112718 0)
(1.01443 -0.00287694 0)
(1.00324 -0.013559 0)
(0.990329 -0.00506801 0)
(0.993347 -0.000974961 0)
(0.996676 0.00544251 0)
(0.999595 0.00773124 0)
(1.00136 0.00524264 0)
(1.00389 0.00516289 0)
(1.00559 0.00290861 0)
(1.00413 0.00118391 0)
(1.00016 0.00210852 0)
(0.999723 0.00307488 0)
(1.0002 0.00418614 0)
(0.999897 0.00664441 0)
(0.999378 0.0088563 0)
(1.00286 8.35302e-05 0)
(1.00112 -0.00610258 0)
(0.991343 -0.00959879 0)
(0.987801 0.00629004 0)
(1.00418 0.0107323 0)
(1.01394 -0.00278757 0)
(1.00312 -0.0129872 0)
(0.990743 -0.00490498 0)
(0.99353 -0.000898675 0)
(0.996973 0.00506613 0)
(0.999477 0.0075032 0)
(1.0013 0.00510577 0)
(1.00373 0.00497193 0)
(1.00547 0.00304373 0)
(1.00406 0.00133399 0)
(1.00032 0.00227667 0)
(0.999803 0.00329361 0)
(1.00044 0.0042823 0)
(1.00015 0.00660542 0)
(0.999582 0.00887007 0)
(1.00267 4.47225e-05 0)
(1.00114 -0.0059551 0)
(0.991559 -0.00924052 0)
(0.988405 0.00588888 0)
(1.00389 0.0101855 0)
(1.01344 -0.00269252 0)
(1.00298 -0.0124238 0)
(0.991177 -0.00473623 0)
(0.993737 -0.000814745 0)
(0.9973 0.00468554 0)
(0.999378 0.00726779 0)
(1.00123 0.00498304 0)
(1.00356 0.00477754 0)
(1.00532 0.00317296 0)
(1.00396 0.00150192 0)
(1.00047 0.00242714 0)
(0.999869 0.00351344 0)
(1.00067 0.00439468 0)
(1.00042 0.00653801 0)
(0.999807 0.00887072 0)
(1.00247 5.48811e-06 0)
(1.00116 -0.00579971 0)
(0.991786 -0.00889061 0)
(0.989009 0.00549427 0)
(1.0036 0.00963303 0)
(1.01292 -0.00259397 0)
(1.00283 -0.0118694 0)
(0.991611 -0.00456551 0)
(0.993963 -0.000728653 0)
(0.997634 0.00430146 0)
(0.999301 0.00702399 0)
(1.00114 0.00487772 0)
(1.00338 0.00457513 0)
(1.00515 0.00328938 0)
(1.00385 0.00168897 0)
(1.0006 0.00256286 0)
(0.999933 0.00372551 0)
(1.00088 0.00453033 0)
(1.00071 0.00644942 0)
(1.00005 0.0088237 0)
(1.00229 -3.50751e-05 0)
(1.00117 -0.00563474 0)
(0.992031 -0.00855354 0)
(0.989599 0.00510889 0)
(1.00332 0.009074 0)
(1.01239 -0.00249217 0)
(1.0027 -0.0113242 0)
(0.992032 -0.00439809 0)
(0.994202 -0.000636633 0)
(0.997962 0.00392155 0)
(0.999248 0.00676691 0)
(1.00103 0.00479167 0)
(1.00321 0.00436691 0)
(1.00498 0.00338551 0)
(1.00372 0.00188899 0)
(1.00072 0.00268287 0)
(1.00001 0.00392246 0)
(1.00107 0.00468962 0)
(1.00101 0.00635668 0)
(1.00033 0.00870069 0)
(1.00213 -7.70248e-05 0)
(1.00116 -0.00545936 0)
(0.992297 -0.00822995 0)
(0.990167 0.00473328 0)
(1.00306 0.00851043 0)
(1.01184 -0.00239011 0)
(1.00258 -0.0107862 0)
(0.992437 -0.00423733 0)
(0.994452 -0.000533219 0)
(0.998273 0.00355538 0)
(0.999219 0.00649514 0)
(1.0009 0.00472988 0)
(1.00306 0.00416798 0)
(1.00481 0.00346031 0)
(1.0036 0.00210163 0)
(1.00083 0.00279075 0)
(1.00009 0.0040928 0)
(1.00123 0.00486976 0)
(1.00131 0.00628904 0)
(1.00063 0.00850444 0)
(1.00198 -0.00011951 0)
(1.00113 -0.00527394 0)
(0.992584 -0.00792173 0)
(0.990709 0.00436907 0)
(1.00281 0.00794501 0)
(1.01128 -0.00229093 0)
(1.00247 -0.0102532 0)
(0.992825 -0.00408627 0)
(0.994707 -0.000432606 0)
(0.998566 0.00320352 0)
(0.999211 0.00620625 0)
(1.00076 0.00468755 0)
(1.00291 0.00398703 0)
(1.00464 0.00351151 0)
(1.00348 0.002329 0)
(1.00093 0.00289971 0)
(1.0002 0.00422635 0)
(1.00138 0.00505327 0)
(1.00159 0.00627606 0)
(1.00095 0.00827238 0)
(1.00186 -0.000163596 0)
(1.00108 -0.00507778 0)
(0.992889 -0.00762717 0)
(0.991226 0.00401339 0)
(1.00259 0.00738417 0)
(1.0107 -0.00219756 0)
(1.00238 -0.00972137 0)
(0.993198 -0.00394296 0)
(0.994964 -0.000327818 0)
(0.998841 0.0028685 0)
(0.999225 0.00589591 0)
(1.0006 0.00465364 0)
(1.00277 0.00382715 0)
(1.00448 0.00353596 0)
(1.00336 0.0025648 0)
(1.00102 0.00302217 0)
(1.00032 0.00432695 0)
(1.00152 0.00520856 0)
(1.00185 0.00631463 0)
(1.00126 0.00806583 0)
(1.00176 -0.000208436 0)
(1.00101 -0.00487212 0)
(0.993205 -0.00734494 0)
(0.991721 0.00366451 0)
(1.00237 0.0068298 0)
(1.01012 -0.00211499 0)
(1.00229 -0.00918512 0)
(0.99356 -0.00380128 0)
(0.995216 -0.000226276 0)
(0.999099 0.00256125 0)
(0.999258 0.00556722 0)
(1.00044 0.00462137 0)
(1.00263 0.00369295 0)
(1.00434 0.00353927 0)
(1.00325 0.002797 0)
(1.00109 0.00315837 0)
(1.00045 0.00441317 0)
(1.00165 0.00532666 0)
(1.00208 0.00636514 0)
(1.00156 0.00792626 0)
(1.00167 -0.00025429 0)
(1.00094 -0.00465683 0)
(0.993527 -0.0070755 0)
(0.992199 0.00332089 0)
(1.00217 0.0062855 0)
(1.00954 -0.00204886 0)
(1.00221 -0.00864836 0)
(0.99391 -0.00366917 0)
(0.995461 -0.00013287 0)
(0.99934 0.00228887 0)
(0.999308 0.00522851 0)
(1.00027 0.00459085 0)
(1.00249 0.00358493 0)
(1.00421 0.00352701 0)
(1.00315 0.00302094 0)
(1.00115 0.00329995 0)
(1.00058 0.00448755 0)
(1.00179 0.00542646 0)
(1.0023 0.00638803 0)
(1.00184 0.00782497 0)
(1.00158 -0.000299424 0)
(1.00085 -0.00443676 0)
(0.993849 -0.00681516 0)
(0.992662 0.00297826 0)
(1.00197 0.00575889 0)
(1.00896 -0.00200415 0)
(1.00212 -0.00811889 0)
(0.99425 -0.00354051 0)
(0.995696 -4.85725e-05 0)
(0.999564 0.00204782 0)
(0.999374 0.00488737 0)
(1.0001 0.00456441 0)
(1.00234 0.00350286 0)
(1.0041 0.00349738 0)
(1.00305 0.0032376 0)
(1.00119 0.00345296 0)
(1.00071 0.00453814 0)
(1.00191 0.00552114 0)
(1.00251 0.00639532 0)
(1.0021 0.00770584 0)
(1.00149 -0.000343752 0)
(1.00077 -0.0042152 0)
(0.994168 -0.00655622 0)
(0.993113 0.00263008 0)
(1.00177 0.00526069 0)
(1.00839 -0.0019867 0)
(1.00202 -0.00760023 0)
(0.994577 -0.00340193 0)
(0.995919 1.09935e-05 0)
(0.999769 0.00182671 0)
(0.999454 0.00454537 0)
(0.999934 0.00453238 0)
(1.00219 0.00344466 0)
(1.004 0.00344854 0)
(1.00297 0.00344135 0)
(1.00122 0.00363277 0)
(1.00083 0.00456554 0)
(1.00204 0.00559405 0)
(1.00269 0.0064277 0)
(1.00235 0.00755689 0)
(1.00141 -0.000387561 0)
(1.00068 -0.00399359 0)
(0.994479 -0.00629157 0)
(0.993551 0.00226789 0)
(1.00158 0.00479436 0)
(1.00783 -0.00199041 0)
(1.00193 -0.00709701 0)
(0.994891 -0.00325253 0)
(0.996127 5.34908e-05 0)
(0.999955 0.00162128 0)
(0.999546 0.00420593 0)
(0.999778 0.00449166 0)
(1.00202 0.00340933 0)
(1.00392 0.00337926 0)
(1.0029 0.00361769 0)
(1.00123 0.00384248 0)
(1.00094 0.00458728 0)
(1.00217 0.00561136 0)
(1.00284 0.00649064 0)
(1.00258 0.00742012 0)
(1.00132 -0.000425833 0)
(1.00059 -0.00378136 0)
(0.994779 -0.00601862 0)
(0.993978 0.00188981 0)
(1.00138 0.00435569 0)
(1.00729 -0.00200368 0)
(1.00183 -0.00661766 0)
(0.99519 -0.00308374 0)
(0.996319 9.04694e-05 0)
(1.00012 0.00143309 0)
(0.999649 0.0038731 0)
(0.999633 0.00445038 0)
(1.00184 0.00340647 0)
(1.00385 0.00329519 0)
(1.00285 0.00374976 0)
(1.00122 0.00407114 0)
(1.00102 0.00463249 0)
(1.00231 0.00556618 0)
(1.00299 0.00653838 0)
(1.00277 0.007341 0)
(1.00124 -0.000460899 0)
(1.0005 -0.00357897 0)
(0.995067 -0.00572667 0)
(0.994394 0.00149461 0)
(1.00119 0.00394513 0)
(1.00675 -0.00201947 0)
(1.00173 -0.00617828 0)
(0.995474 -0.0029034 0)
(0.996493 0.000124112 0)
(1.00026 0.00126146 0)
(0.999763 0.00354779 0)
(0.9995 0.00440638 0)
(1.00164 0.00344361 0)
(1.00378 0.00320982 0)
(1.00284 0.00382698 0)
(1.0012 0.00430052 0)
(1.00107 0.00472264 0)
(1.00245 0.00549065 0)
(1.00314 0.00652079 0)
(1.00293 0.00731557 0)
(1.00116 -0.000490761 0)
(1.00042 -0.0033915 0)
(0.995338 -0.00541323 0)
(0.994796 0.00108227 0)
(1.00101 0.00355717 0)
(1.00622 -0.00202702 0)
(1.00163 -0.00579057 0)
(0.995745 -0.00271955 0)
(0.996648 0.000160945 0)
(1.00039 0.00110191 0)
(0.999887 0.00322177 0)
(0.999385 0.00434674 0)
(1.00143 0.00351439 0)
(1.00371 0.00313517 0)
(1.00285 0.00384699 0)
(1.00118 0.00450766 0)
(1.00108 0.00485703 0)
(1.00256 0.00542678 0)
(1.0033 0.00643593 0)
(1.00307 0.00730448 0)
(1.00108 -0.00051129 0)
(1.00034 -0.00322903 0)
(0.995591 -0.00507806 0)
(0.995185 0.000659141 0)
(1.00083 0.00317962 0)
(1.0057 -0.00202035 0)
(1.00153 -0.00544862 0)
(0.996004 -0.00253073 0)
(0.996783 0.000212756 0)
(1.00049 0.000958993 0)
(1.00002 0.0028913 0)
(0.999294 0.00426806 0)
(1.0012 0.00361159 0)
(1.00362 0.00308426 0)
(1.00289 0.00381556 0)
(1.00118 0.00467166 0)
(1.00106 0.00501292 0)
(1.00265 0.00538861 0)
(1.00348 0.00630147 0)
(1.0032 0.0072568 0)
(1.00099 -0.000524642 0)
(1.00026 -0.003091 0)
(0.995825 -0.00472071 0)
(0.995557 0.00024215 0)
(1.00066 0.00280942 0)
(1.00519 -0.00197958 0)
(1.00144 -0.00514977 0)
(0.996255 -0.00235449 0)
(0.996898 0.000279705 0)
(1.00056 0.000846156 0)
(1.00017 0.00256039 0)
(0.999232 0.00416835 0)
(1.00095 0.00372885 0)
(1.00351 0.00306644 0)
(1.00295 0.003744 0)
(1.00121 0.00478699 0)
(1.00101 0.00517683 0)
(1.00268 0.00537895 0)
(1.00365 0.00614111 0)
(1.00336 0.00714577 0)
(1.00091 -0.000528233 0)
(1.00019 -0.0029843 0)
(0.99604 -0.00434559 0)
(0.995909 -0.00015547 0)
(1.00051 0.00243667 0)
(1.00469 -0.0018983 0)
(1.00133 -0.0048856 0)
(0.9965 -0.00219797 0)
(0.996995 0.000360449 0)
(1.0006 0.000771667 0)
(1.00032 0.0022346 0)
(0.999208 0.00402901 0)
(1.0007 0.00385106 0)
(1.00337 0.00308444 0)
(1.00303 0.00364013 0)
(1.00126 0.00484391 0)
(1.00095 0.00534348 0)
(1.00267 0.00540251 0)
(1.0038 0.0059796 0)
(1.00354 0.00697755 0)
(1.00083 -0.000519993 0)
(1.00013 -0.00290447 0)
(0.996236 -0.00396664 0)
(0.996238 -0.000515097 0)
(1.00037 0.00203747 0)
(1.0042 -0.00179217 0)
(1.00123 -0.00464504 0)
(0.996745 -0.00207452 0)
(0.997079 0.000453023 0)
(1.0006 0.000740239 0)
(1.00046 0.00193775 0)
(0.999223 0.00384895 0)
(1.00045 0.00396301 0)
(1.00318 0.00314941 0)
(1.00311 0.003527 0)
(1.00136 0.004826 0)
(1.00088 0.00549095 0)
(1.0026 0.00545536 0)
(1.00392 0.00582367 0)
(1.00375 0.00675492 0)
(1.00076 -0.000505365 0)
(1.00008 -0.00284568 0)
(0.996416 -0.0035921 0)
(0.996541 -0.000829176 0)
(1.00026 0.00161718 0)
(1.00372 -0.0016751 0)
(1.00112 -0.00441606 0)
(0.996992 -0.00198382 0)
(0.997157 0.000553867 0)
(1.00057 0.000754727 0)
(1.0006 0.00167788 0)
(0.999279 0.00363063 0)
(1.00021 0.00403821 0)
(1.00295 0.00325189 0)
(1.00316 0.00343635 0)
(1.0015 0.00474054 0)
(1.00082 0.00559939 0)
(1.00248 0.0055456 0)
(1.00399 0.00570042 0)
(1.00397 0.00650032 0)
(1.00068 -0.000479396 0)
(1.00005 -0.00281232 0)
(0.996587 -0.00323389 0)
(0.996817 -0.00106958 0)
(1.00016 0.00115329 0)
(1.00326 -0.0015363 0)
(1.001 -0.00415287 0)
(0.997236 -0.00192639 0)
(0.997234 0.000636525 0)
(1.0005 0.000813794 0)
(1.00071 0.00146282 0)
(0.999374 0.00338039 0)
(1.00001 0.00406454 0)
(1.0027 0.00336116 0)
(1.0032 0.00337378 0)
(1.00167 0.004607 0)
(1.0008 0.00564549 0)
(1.00232 0.00565689 0)
(1.00398 0.00563021 0)
(1.00417 0.00623888 0)
(1.0006 -0.000446095 0)
(1.00003 -0.00279319 0)
(0.996751 -0.00290405 0)
(0.997058 -0.00123367 0)
(1.00008 0.000679086 0)
(1.00284 -0.00137364 0)
(1.00086 -0.00383542 0)
(0.997479 -0.00191582 0)
(0.997323 0.000658339 0)
(1.00041 0.000887204 0)
(1.0008 0.0012947 0)
(0.999495 0.00310946 0)
(0.999843 0.00404056 0)
(1.00242 0.00346061 0)
(1.00319 0.00333104 0)
(1.00186 0.00444223 0)
(1.00082 0.00561656 0)
(1.00214 0.00575045 0)
(1.0039 0.00560532 0)
(1.00434 0.00599607 0)
(1.00053 -0.00040898 0)
(1.00002 -0.00278118 0)
(0.996911 -0.0026166 0)
(0.997265 -0.00131921 0)
(1.00003 0.000240356 0)
(1.00245 -0.00125959 0)
(1.00071 -0.00348751 0)
(0.99771 -0.00190979 0)
(0.997426 0.000623683 0)
(1.00031 0.000962549 0)
(1.00086 0.00118841 0)
(0.999637 0.00283937 0)
(0.999718 0.00396491 0)
(1.00213 0.00354467 0)
(1.00314 0.00330738 0)
(1.00205 0.00426357 0)
(1.00089 0.00552271 0)
(1.00195 0.00581069 0)
(1.00375 0.00561506 0)
(1.00443 0.00580841 0)
(1.00046 -0.000365219 0)
(1.00002 -0.00277243 0)
(0.997076 -0.00238515 0)
(0.997441 -0.00132115 0)
(0.99999 -0.000194742 0)
(1.00211 -0.00121042 0)
(1.00055 -0.00310887 0)
(0.997922 -0.00187309 0)
(0.997546 0.000548693 0)
(1.0002 0.00102691 0)
(1.00088 0.0011463 0)
(0.999789 0.00259516 0)
(0.999636 0.00384907 0)
(1.00185 0.00361304 0)
(1.00305 0.00330893 0)
(1.00224 0.00408652 0)
(1.00101 0.00537209 0)
(1.0018 0.00582907 0)
(1.00355 0.00563865 0)
(1.00445 0.00568161 0)
(1.0004 -0.000325059 0)
(1.00004 -0.00275113 0)
(0.99725 -0.00221091 0)
(0.997586 -0.00127057 0)
(0.999958 -0.000585238 0)
(1.00183 -0.0012256 0)
(1.0004 -0.00271634 0)
(0.998108 -0.00177804 0)
(0.997679 0.00045377 0)
(1.0001 0.00105918 0)
(1.00088 0.0011321 0)
(0.999942 0.00238419 0)
(0.999598 0.00370681 0)
(1.00158 0.00366214 0)
(1.00292 0.00333432 0)
(1.00241 0.0039266 0)
(1.00118 0.005174 0)
(1.00168 0.0057964 0)
(1.00332 0.00565956 0)
(1.00438 0.00559949 0)
(1.00033 -0.000287641 0)
(1.00007 -0.00271383 0)
(0.997437 -0.00209972 0)
(0.997707 -0.0011771 0)
(0.999924 -0.000889352 0)
(1.00161 -0.00131335 0)
(1.00026 -0.00234978 0)
(0.998265 -0.00161052 0)
(0.997817 0.000367592 0)
(1.00001 0.00105509 0)
(1.00087 0.00112635 0)
(1.00009 0.00220427 0)
(0.999601 0.00355304 0)
(1.00134 0.00368644 0)
(1.00276 0.00336825 0)
(1.00255 0.00378971 0)
(1.00138 0.00494202 0)
(1.00161 0.00570195 0)
(1.00308 0.00566438 0)
(1.00425 0.00554178 0)
(1.00028 -0.000256243 0)
(1.00009 -0.00265668 0)
(0.99764 -0.0020466 0)
(0.997814 -0.00106536 0)
(0.999882 -0.00109832 0)
(1.00143 -0.00143693 0)
(1.00015 -0.00203182 0)
(0.998399 -0.00139377 0)
(0.99795 0.000305475 0)
(0.999937 0.00102507 0)
(1.00084 0.00112768 0)
(1.00025 0.00205022 0)
(0.999645 0.00339349 0)
(1.00112 0.00369241 0)
(1.00258 0.00340606 0)
(1.00265 0.00367826 0)
(1.0016 0.00469849 0)
(1.00161 0.00554323 0)
(1.00285 0.00563484 0)
(1.00407 0.00548665 0)
(1.00023 -0.000233507 0)
(1.00012 -0.00257436 0)
(0.997856 -0.00204481 0)
(0.997916 -0.000952116 0)
(0.999826 -0.00120072 0)
(1.00131 -0.00158127 0)
(1.00009 -0.00179704 0)
(0.998515 -0.00114502 0)
(0.998073 0.000292215 0)
(0.999881 0.000989147 0)
(1.00081 0.00112051 0)
(1.0004 0.00190975 0)
(0.99973 0.00321128 0)
(1.00094 0.00367068 0)
(1.00238 0.00344794 0)
(1.0027 0.00359436 0)
(1.00183 0.00446573 0)
(1.00167 0.005342 0)
(1.00266 0.0055671 0)
(1.00386 0.00542877 0)
(1.00018 -0.000220932 0)
(1.00015 -0.00246027 0)
(0.998086 -0.0020772 0)
(0.998025 -0.000868211 0)
(0.999754 -0.00119313 0)
(1.00121 -0.00170593 0)
(1.00007 -0.0016659 0)
(0.998631 -0.000898547 0)
(0.998181 0.000341865 0)
(0.999832 0.00096624 0)
(1.00078 0.00110975 0)
(1.00054 0.00179006 0)
(0.999852 0.00302008 0)
(1.00081 0.00361418 0)
(1.00217 0.00349027 0)
(1.00271 0.00353923 0)
(1.00205 0.00424582 0)
(1.00179 0.00510754 0)
(1.00252 0.00545507 0)
(1.00365 0.00535811 0)
(1.00014 -0.000219583 0)
(1.00017 -0.00231897 0)
(0.998322 -0.00211454 0)
(0.99815 -0.000825286 0)
(0.999671 -0.00112199 0)
(1.00112 -0.00177305 0)
(1.00011 -0.00162287 0)
(0.998764 -0.000691075 0)
(0.998279 0.000432377 0)
(0.999786 0.000963061 0)
(1.00074 0.00110263 0)
(1.00067 0.00168275 0)
(1 0.00283388 0)
(1.00073 0.0035254 0)
(1.00198 0.00351856 0)
(1.00268 0.00351658 0)
(1.00223 0.00405422 0)
(1.00194 0.00484887 0)
(1.00244 0.00529867 0)
(1.00344 0.00526982 0)
(1.00011 -0.000226556 0)
(1.00018 -0.00215542 0)
(0.998557 -0.00215023 0)
(0.998293 -0.000817833 0)
(0.999583 -0.00102012 0)
(1.00103 -0.00176065 0)
(1.00018 -0.00164053 0)
(0.998926 -0.000556398 0)
(0.998369 0.000545211 0)
(0.999735 0.00100288 0)
(1.0007 0.0011119 0)
(1.0008 0.00158533 0)
(1.00018 0.00264106 0)
(1.00071 0.00340502 0)
(1.00181 0.00351163 0)
(1.00261 0.00350521 0)
(1.00238 0.00390772 0)
(1.00212 0.00458855 0)
(1.00242 0.00510156 0)
(1.00326 0.00516294 0)
(1.00008 -0.000242119 0)
(1.00018 -0.00197031 0)
(0.998783 -0.00217328 0)
(0.998457 -0.000855442 0)
(0.999501 -0.000902037 0)
(1.00093 -0.00165682 0)
(1.00027 -0.00165944 0)
(0.999126 -0.000528231 0)
(0.998474 0.000639682 0)
(0.999681 0.00107575 0)
(1.00064 0.00114362 0)
(1.0009 0.00151909 0)
(1.00037 0.00244935 0)
(1.00074 0.00326212 0)
(1.00168 0.00347962 0)
(1.00253 0.003485 0)
(1.00248 0.00380016 0)
(1.00229 0.00435514 0)
(1.00245 0.00487006 0)
(1.00311 0.00502226 0)
(1.00006 -0.000262307 0)
(1.00018 -0.00178102 0)
(0.998992 -0.00216388 0)
(0.998638 -0.000925215 0)
(0.999438 -0.00079784 0)
(1.0008 -0.00149719 0)
(1.00034 -0.00163557 0)
(0.999355 -0.000574247 0)
(0.998606 0.000683916 0)
(0.999628 0.00115793 0)
(1.00057 0.00119832 0)
(1.00098 0.00148127 0)
(1.00056 0.00227273 0)
(1.00082 0.00308613 0)
(1.00158 0.00342057 0)
(1.00245 0.00344992 0)
(1.00254 0.00370277 0)
(1.00244 0.00416202 0)
(1.00253 0.00463258 0)
(1.00302 0.00484522 0)
(1.00004 -0.000282438 0)
(1.00016 -0.00159555 0)
(0.999177 -0.00212013 0)
(0.998832 -0.00101308 0)
(0.999397 -0.000719666 0)
(1.00067 -0.00131155 0)
(1.0004 -0.00155118 0)
(0.999597 -0.00065118 0)
(0.998776 0.000651255 0)
(0.99959 0.00123127 0)
(1.00048 0.00128134 0)
(1.00102 0.00147094 0)
(1.00074 0.00213185 0)
(1.00094 0.00288976 0)
(1.00153 0.00331949 0)
(1.00236 0.00340352 0)
(1.00258 0.00360004 0)
(1.00257 0.0039884 0)
(1.00261 0.00441203 0)
(1.00298 0.00463711 0)
(1.00003 -0.000302023 0)
(1.00014 -0.00142192 0)
(0.999333 -0.00202918 0)
(0.999031 -0.00111067 0)
(0.999386 -0.000679323 0)
(1.00055 -0.00112473 0)
(1.00042 -0.00140439 0)
(0.999827 -0.000713784 0)
(0.998983 0.00054766 0)
(0.999586 0.001262 0)
(1.00039 0.00136909 0)
(1.00103 0.00148842 0)
(1.00089 0.00202362 0)
(1.00107 0.00270405 0)
(1.00152 0.00318102 0)
(1.00229 0.00333987 0)
(1.00259 0.00350547 0)
(1.00267 0.0038142 0)
(1.00268 0.00420942 0)
(1.00297 0.00441557 0)
(1.00001 -0.00031568 0)
(1.00012 -0.00126994 0)
(0.999458 -0.00189997 0)
(0.999223 -0.00119578 0)
(0.999403 -0.000676042 0)
(1.00043 -0.000954161 0)
(1.00041 -0.00122541 0)
(1.00002 -0.000725793 0)
(0.999213 0.000419939 0)
(0.999626 0.00123756 0)
(1.0003 0.00144243 0)
(1.00101 0.00153328 0)
(1.001 0.00194327 0)
(1.0012 0.00253796 0)
(1.00156 0.00302259 0)
(1.00224 0.00323816 0)
(1.00258 0.00341671 0)
(1.00275 0.00364439 0)
(1.00275 0.00401021 0)
(1.00297 0.00420777 0)
(1.00001 -0.000320255 0)
(1.0001 -0.00114462 0)
(0.999554 -0.00175177 0)
(0.9994 -0.00124667 0)
(0.999447 -0.000699187 0)
(1.00033 -0.000806219 0)
(1.00037 -0.00103672 0)
(1.00018 -0.00068436 0)
(0.999445 0.000300045 0)
(0.999708 0.00115604 0)
(1.00023 0.00148139 0)
(1.00096 0.00158611 0)
(1.00107 0.00190093 0)
(1.00132 0.00239201 0)
(1.0016 0.00286427 0)
(1.00221 0.00310445 0)
(1.00255 0.00331175 0)
(1.0028 0.00349454 0)
(1.00282 0.00380425 0)
(1.00297 0.00401488 0)
(0.999998 -0.000318583 0)
(1.00009 -0.00104036 0)
(0.999628 -0.00159589 0)
(0.999556 -0.00125593 0)
(0.999511 -0.000734849 0)
(1.00026 -0.000691551 0)
(1.00033 -0.000849165 0)
(1.00029 -0.00059729 0)
(0.99966 0.000213027 0)
(0.999823 0.00104403 0)
(1.0002 0.00147685 0)
(1.0009 0.0016205 0)
(1.0011 0.00188602 0)
(1.00141 0.00227251 0)
(1.00166 0.00271161 0)
(1.00221 0.00296354 0)
(1.00254 0.00317928 0)
(1.00282 0.00335747 0)
(1.00288 0.00360225 0)
(1.00298 0.00381354 0)
(0.999991 -0.000310851 0)
(1.00007 -0.00095181 0)
(0.999684 -0.0014436 0)
(0.999688 -0.00122713 0)
(0.999587 -0.000764629 0)
(1.00021 -0.000608076 0)
(1.00028 -0.000676138 0)
(1.00037 -0.000484596 0)
(0.999844 0.00016837 0)
(0.999957 0.000934473 0)
(1.0002 0.00143393 0)
(1.00085 0.00163219 0)
(1.0011 0.00187356 0)
(1.00147 0.00218357 0)
(1.00171 0.00256624 0)
(1.00221 0.00282304 0)