/*--------------------------------*- C++ -*----------------------------------*\
| =========                 |                                                 |
| \\      /  F ield         | OpenFOAM: The Open Source CFD Toolbox           |
|  \\    /   O peration     | Version:  3.0.1                                 |
|   \\  /    A nd           | Web:      www.OpenFOAM.org                      |
|    \\/     M anipulation  |                                                 |
\*---------------------------------------------------------------------------*/
FoamFile
{
    version     2.0;
    format      ascii;
    class       volScalarField;
    location    "1.2";
    object      p;
}
// * * * * * * * * * * * * * * * * * * * * * * * * * * * * * * * * * * * * * //

dimensions      [0 2 -2 0 0 0 0];

internalField   nonuniform List<scalar> 
9600
(
9.74643e-12
0.00215748
0.00166358
0.00244284
0.00272181
0.00203392
0.00186365
0.00275076
0.00182907
0.00244236
0.00321166
0.00462485
0.00491254
0.00512804
0.00686957
0.00808623
0.00959912
0.0110519
0.0150644
0.0198177
5.30607e-07
0.0021567
0.00166847
0.00243954
0.00271538
0.00203329
0.00187543
0.00274938
0.00183466
0.00244111
0.00320809
0.00462345
0.00490829
0.00512695
0.00687359
0.00806995
0.00963389
0.0110088
0.0151809
0.0193609
1.72899e-06
0.00215606
0.00167388
0.00243477
0.00270935
0.00203471
0.00188613
0.00274573
0.00184471
0.00243555
0.00320584
0.004619
0.00489972
0.0051306
0.00687048
0.00805066
0.00964691
0.010958
0.0152222
0.0187409
4.06352e-06
0.00215557
0.00167916
0.00243079
0.00270353
0.00203623
0.00189382
0.00274051
0.0018592
0.00242743
0.00320658
0.00461188
0.00488879
0.00513805
0.00686273
0.00802686
0.00966099
0.0109051
0.0151869
0.018221
7.93741e-06
0.00215497
0.00168504
0.00242727
0.00269663
0.00203802
0.00189943
0.00273393
0.00187895
0.00241752
0.00320901
0.00460204
0.00487702
0.00514582
0.00685738
0.00800083
0.00967533
0.0108443
0.0151228
0.0177563
1.34455e-05
0.00215401
0.00169173
0.00242351
0.00268848
0.00204003
0.00190341
0.00272649
0.00190362
0.00240672
0.00321223
0.00459026
0.00486513
0.0051525
0.00685257
0.00797331
0.00968529
0.0107801
0.015028
0.0173207
2.03835e-05
0.00215249
0.00169914
0.00241938
0.00267929
0.00204193
0.00190634
0.00271878
0.0019322
0.00239624
0.00321624
0.00457784
0.00485342
0.00515716
0.00684818
0.00794413
0.00968917
0.0107144
0.0148963
0.0169071
2.8393e-05
0.00215029
0.00170718
0.00241497
0.00266932
0.00204346
0.00190888
0.00271102
0.00196383
0.00238704
0.00322138
0.00456573
0.00484171
0.00515894
0.00684358
0.00791353
0.00968516
0.0106477
0.0147266
0.0165121
3.71465e-05
0.00214747
0.00171577
0.00241036
0.0026588
0.00204457
0.00191163
0.00270319
0.00199787
0.00237945
0.0032279
0.00455431
0.00482974
0.00515733
0.00683796
0.00788217
0.0096712
0.0105799
0.0145201
0.016132
4.64352e-05
0.00214416
0.00172487
0.00240558
0.00264794
0.00204523
0.00191492
0.00269515
0.0020338
0.00237343
0.00323579
0.00454361
0.00481741
0.00515227
0.00683045
0.00785085
0.00964539
0.0105107
0.0142792
0.0157615
5.61634e-05
0.00214048
0.00173442
0.0024006
0.00263688
0.00204609
0.00191892
0.00268674
0.00207114
0.00236877
0.00324481
0.00453349
0.00480462
0.00514419
0.00682015
0.00782003
0.00960615
0.0104395
0.0140075
0.0153943
6.63096e-05
0.0021365
0.00174442
0.00239539
0.00262571
0.0020457
0.00192372
0.00267785
0.0021095
0.00236517
0.00325452
0.00452369
0.00479112
0.00513375
0.00680629
0.0077901
0.00955233
0.0103646
0.0137085
0.0150249
7.68928e-05
0.00213224
0.00175486
0.00238988
0.0026145
0.00204465
0.00192934
0.0026684
0.00214856
0.00236242
0.00326433
0.00451392
0.00477665
0.00512169
0.00678812
0.00776126
0.00948352
0.0102835
0.0133682
0.0146489
8.79496e-05
0.00212769
0.00176578
0.00238402
0.00260331
0.00204287
0.00193578
0.00265834
0.00218804
0.00236038
0.0032736
0.00450409
0.0047609
0.00510865
0.006765
0.00773305
0.00940036
0.0101934
0.0130275
0.0142638
9.95251e-05
0.00212281
0.0017772
0.00237773
0.00259221
0.00204031
0.00194305
0.0026477
0.00222768
0.00235901
0.00328171
0.00449433
0.00474335
0.00509504
0.00673652
0.0077044
0.00930412
0.0100907
0.0126772
0.0138685
0.000111672
0.00211751
0.00178916
0.00237097
0.00258127
0.00203691
0.00195115
0.00263654
0.00226725
0.00235844
0.00328812
0.00448486
0.00472351
0.00508103
0.00670266
0.00767358
0.00919626
0.00997241
0.012319
0.0134643
0.000124451
0.00211171
0.00180172
0.00236368
0.00257053
0.00203265
0.00196006
0.00262496
0.00230641
0.00235893
0.00329232
0.00447587
0.00470103
0.0050664
0.00666379
0.00763839
0.00907801
0.00983703
0.011954
0.0130521
0.000137932
0.00210532
0.00181492
0.00235581
0.00256005
0.00202748
0.00196976
0.00261313
0.00234478
0.00236086
0.00329385
0.00446752
0.0046757
0.00505036
0.00662066
0.00759629
0.00895047
0.00968459
0.0115892
0.0126335
0.000152202
0.00209819
0.0018288
0.00234732
0.00254989
0.00202141
0.00198012
0.00260128
0.00238192
0.00236465
0.00329228
0.00445988
0.00464766
0.00503177
0.0065742
0.00754498
0.00881316
0.00951627
0.0112152
0.0122099
0.000167352
0.0020902
0.00184338
0.00233817
0.00254011
0.00201446
0.00199098
0.00258969
0.0024173
0.00237066
0.00328735
0.00445273
0.00461727
0.00500942
0.00652523
0.00748316
0.00866507
0.00933377
0.0108377
0.0117823
0.000183488
0.00208121
0.00185871
0.00232831
0.00253071
0.00200673
0.00200208
0.00257872
0.00245038
0.00237906
0.00327906
0.00444573
0.00458508
0.0049817
0.00647373
0.00740994
0.00850463
0.00913896
0.0104581
0.0113508
0.000200728
0.00207103
0.00187479
0.00231777
0.00252168
0.00199836
0.00201312
0.00256876
0.00248071
0.00238997
0.00326748
0.00443808
0.00455193
0.00494712
0.00641884
0.00732596
0.00833092
0.00893299
0.0100784
0.0109155
0.000219203
0.0020595
0.00189161
0.00230655
0.00251296
0.0019896
0.00202371
0.00256022
0.00250793
0.00240337
0.0032529
0.00442851
0.00451872
0.00490499
0.00635932
0.00722784
0.00814325
0.00871614
0.00970149
0.0104764
0.00023905
0.00204644
0.00190914
0.0022947
0.00250446
0.00198075
0.00203335
0.00255339
0.00253183
0.00241892
0.0032359
0.00441584
0.004486
0.00485491
0.00629361
0.00712927
0.00794147
0.00848799
0.00933009
0.0100347
0.000260415
0.00203167
0.0019273
0.00228231
0.00249604
0.00197217
0.00204161
0.00254843
0.00255238
0.00243608
0.00321731
0.00439897
0.00445385
0.00479656
0.00621986
0.00702487
0.00772668
0.00824718
0.00896577
0.00959215
0.000283454
0.00201504
0.00194597
0.00226953
0.00248746
0.00196428
0.00204819
0.00254526
0.0025697
0.00245416
0.0031978
0.00437696
0.00442197
0.00473018
0.00613619
0.00691431
0.00750098
0.00799302
0.00860945
0.0091514
0.000308327
0.00199638
0.00196497
0.00225658
0.0024784
0.00195756
0.00205284
0.00254376
0.0025842
0.00247202
0.00317784
0.00434931
0.00438959
0.00465647
0.00604084
0.00679731
0.00726687
0.00772527
0.00826159
0.00871513
0.000335181
0.00197561
0.00198407
0.00224366
0.00246857
0.00195239
0.00205541
0.00254364
0.0025963
0.00248879
0.0031576
0.00431566
0.00435564
0.00457586
0.00593263
0.00667391
0.00702705
0.00744343
0.00792161
0.0082872
0.000364161
0.00195269
0.00200289
0.00223105
0.00245771
0.00194906
0.002056
0.00254442
0.00260629
0.00250383
0.00313718
0.00427577
0.00431896
0.00448867
0.00581063
0.00654396
0.00678465
0.00714727
0.00758744
0.0078732
0.000395395
0.00192763
0.00202103
0.00221901
0.00244557
0.0019478
0.00205483
0.00254553
0.00261448
0.0025165
0.00311645
0.00422954
0.00427815
0.00439537
0.00567433
0.00640682
0.00654302
0.00683778
0.00725535
0.00747896
0.000428994
0.00190054
0.00203797
0.00220776
0.00243208
0.00194866
0.00205216
0.00254641
0.00262118
0.00252628
0.00309483
0.00417692
0.00423181
0.00429608
0.0055244
0.00626187
0.00630471
0.00651758
0.00691952
0.00710674
0.000465018
0.00187162
0.00205319
0.00219742
0.00241733
0.00195151
0.00204824
0.00254668
0.00262657
0.00253255
0.00307145
0.0041181
0.00417891
0.00419095
0.00536184
0.00610846
0.00607117
0.00619054
0.0065743
0.00675356
0.000503488
0.00184141
0.0020662
0.00218802
0.00240148
0.00195614
0.00204325
0.00254598
0.00263079
0.00253461
0.00304509
0.0040535
0.00411899
0.00408019
0.00518765
0.00594614
0.00584255
0.00586068
0.00621783
0.00641256
0.000544446
0.00181022
0.0020763
0.00217942
0.00238468
0.00196248
0.00203735
0.00254391
0.0026339
0.00253193
0.00301452
0.00398315
0.00405193
0.00396406
0.00500291
0.00577469
0.00561844
0.0055315
0.00585175
0.00607489
0.000587877
0.00177843
0.00208328
0.00217141
0.00236694
0.00197051
0.00203074
0.00253988
0.00263603
0.00252412
0.00297818
0.00390683
0.00397836
0.00384347
0.00480805
0.00559325
0.0053992
0.005206
0.00547856
0.00573351
0.000633678
0.00174649
0.00208676
0.00216378
0.00234808
0.00198037
0.0020238
0.00253299
0.00263747
0.00251097
0.00293421
0.00382443
0.00389948
0.00371961
0.00460337
0.00540068
0.00518524
0.00488647
0.00510049
0.00538512
0.000681723
0.00171481
0.00208676
0.00215619
0.00232757
0.00199217
0.00201703
0.00252213
0.00263809
0.00249277
0.00288116
0.00373542
0.00381653
0.00359324
0.0043892
0.00519565
0.0049762
0.0045755
0.00471968
0.00502896
0.000731851
0.00168377
0.00208339
0.00214838
0.00230462
0.00200567
0.0020111
0.00250614
0.00263717
0.00247094
0.0028186
0.0036388
0.00373023
0.00346556
0.00416621
0.00497648
0.004771
0.00427625
0.00433848
0.00466524
0.000783853
0.00165373
0.00207673
0.00214046
0.00227849
0.00202031
0.00200698
0.00248381
0.00263328
0.00244766
0.00274737
0.00353317
0.00363999
0.00333876
0.00393614
0.00474101
0.00456708
0.00399184
0.00396004
0.00429433
0.000837509
0.00162505
0.0020668
0.00213281
0.00224853
0.0020348
0.00200607
0.00245445
0.00262384
0.00242527
0.00267007
0.00341706
0.00354383
0.00321413
0.00370204
0.00448826
0.00435999
0.00372413
0.0035886
0.00391675
0.000892608
0.00159803
0.00205363
0.00212615
0.00221426
0.00204654
0.0020093
0.00241859
0.00260604
0.00240447
0.00259007
0.00329007
0.00343898
0.00309151
0.00346796
0.00421962
0.00414458
0.00347298
0.00322933
0.00353306
0.000948873
0.00157299
0.00203706
0.00212131
0.00217504
0.00205218
0.00201634
0.00237823
0.00257775
0.00238433
0.00251109
0.00315318
0.00332268
0.00296982
0.00323728
0.00393818
0.00391748
0.00323623
0.00288769
0.00314503
0.00100593
0.00155038
0.00201697
0.00211866
0.00213339
0.00204846
0.00202598
0.00233626
0.00253794
0.00236254
0.00243577
0.00300906
0.00319288
0.00284644
0.00301197
0.00364824
0.00367774
0.0030096
0.00256765
0.00275744
0.00106338
0.00153064
0.00199307
0.00211809
0.00209089
0.00203286
0.00203572
0.00229561
0.00248709
0.00233487
0.00236462
0.00286181
0.00304913
0.0027179
0.00279273
0.00335384
0.00342571
0.00278871
0.00227087
0.00237825
0.00112072
0.00151431
0.00196514
0.00211945
0.00205002
0.00200391
0.00204189
0.00225853
0.0024268
0.00229739
0.0022968
0.00271589
0.00289328
0.00258068
0.00257868
0.00305802
0.00316243
0.00257064
0.00199671
0.0020157
0.00117738
0.00150196
0.00193304
0.00212188
0.0020134
0.00196087
0.00203985
0.00222643
0.00235996
0.00224733
0.0022294
0.00257438
0.00272939
0.00243281
0.00236747
0.0027632
0.00288905
0.00235297
0.00174287
0.00167476
0.00123276
0.00149416
0.00189696
0.00212422
0.00198311
0.00190476
0.00202444
0.00219943
0.00228061
0.00218344
0.00215741
0.0024377
0.00256217
0.00227523
0.00215681
0.00247104
0.00260665
0.00213286
0.00150724
0.00135737
0.00128627
0.00149135
0.00185724
0.00211994
0.00196092
0.0018393
0.00199115
0.00217581
0.00221421
0.0021068
0.00207556
0.0023044
0.00239574
0.0021111
0.00194581
0.00218169
0.00231636
0.00190685
0.00128757
0.00106507
0.00133732
0.00149381
0.00181455
0.00210828
0.00194772
0.00176965
0.0019369
0.00215021
0.00215765
0.00202179
0.00198057
0.00217066
0.00223226
0.00194472
0.00173536
0.00189518
0.00201987
0.00167178
0.00107921
0.000799667
0.0013853
0.00150152
0.00177033
0.00208637
0.00194266
0.00170242
0.00186067
0.00211459
0.00211031
0.0019359
0.00187318
0.00203096
0.00207073
0.00177969
0.00152752
0.00161291
0.00171966
0.0014267
0.000874925
0.000560205
0.00142962
0.00151416
0.00172673
0.00205229
0.00194296
0.00164414
0.0017639
0.00206287
0.00207166
0.00185705
0.0017562
0.00188087
0.00190739
0.00161695
0.00132621
0.00133751
0.00141816
0.00117304
0.000668052
0.000340509
0.00146975
0.00153121
0.00168603
0.00200529
0.00194218
0.00159942
0.00165355
0.00198355
0.00203393
0.00179037
0.00163624
0.00172024
0.00173718
0.00145473
0.00113376
0.001073
0.00111843
0.000912946
0.00045621
0.000131512
0.00150536
0.0015516
0.00165033
0.00194438
0.00193975
0.00156956
0.00154108
0.00187553
0.00198378
0.00173523
0.00152341
0.00155223
0.00155643
0.00128929
0.00094843
0.000823325
0.000825038
0.000648799
0.00024074
-7.37322e-05
0.00153643
0.00157361
0.0016212
0.00187418
0.00191364
0.00155376
0.00143726
0.00173967
0.00190954
0.00168818
0.00142476
0.00138334
0.00136498
0.00111583
0.000767147
0.000588278
0.000543521
0.000384401
2.43459e-05
-0.000276742
0.00156309
0.00159529
0.00159906
0.00179747
0.0018705
0.00154485
0.00134881
0.00158627
0.00180373
0.00163836
0.0013419
0.00122413
0.00116684
0.000930987
0.000585388
0.000364917
0.000276209
0.000123617
-0.00019062
-0.00047441
0.00158541
0.00161475
0.00158333
0.00171824
0.0018094
0.00153102
0.00127827
0.00143179
0.00166671
0.00156926
0.00127191
0.00108282
0.000969537
0.000735785
0.000398828
0.000149968
2.22392e-05
-0.000130833
-0.000403145
-0.000662798
0.00160347
0.00163046
0.00157285
0.00164034
0.00173119
0.00150764
0.00122671
0.00128721
0.00150269
0.00146967
0.00120397
0.000961406
0.000784086
0.000535248
0.000204781
-6.11083e-05
-0.000219952
-0.000377981
-0.000613922
-0.000841218
0.00161747
0.001641
0.00156546
0.00156742
0.00163854
0.00146954
0.00118565
0.00115989
0.00132539
0.00133826
0.00112179
0.000856118
0.000619135
0.000338718
5.73298e-06
-0.000272411
-0.000453203
-0.000617265
-0.000823848
-0.00101255
0.00162758
0.0016455
0.00155832
0.00150149
0.00153755
0.00141246
0.0011465
0.0010524
0.00115128
0.00117861
0.00101458
0.000756172
0.000475077
0.000156855
-0.000191983
-0.000484857
-0.000681094
-0.000848747
-0.00103293
-0.00118094
0.00163389
0.00164368
0.00154826
0.00144276
0.00143437
0.00133638
0.00110041
0.000962815
0.000990371
0.00100154
0.000879596
0.000647654
0.000347321
-4.71658e-06
-0.000378219
-0.000693566
-0.000906413
-0.00107374
-0.00124052
-0.0013506
0.00163638
0.00163557
0.00153277
0.0013905
0.00133339
0.00124374
0.00104161
0.000882913
0.000845936
0.000822355
0.000720487
0.000520844
0.000226048
-0.000147363
-0.000545228
-0.0008903
-0.00112696
-0.00129399
-0.0014451
-0.0015237
0.00163477
0.00162164
0.00151075
0.00134187
0.00123743
0.00113926
0.000966893
0.000804537
0.00071716
0.000651755
0.000546534
0.000372998
0.000100258
-0.000275469
-0.000691851
-0.0010666
-0.00133616
-0.00150925
-0.00164483
-0.00169913
0.00162856
0.00160249
0.00148191
0.00130309
0.00114781
0.00102857
0.000876146
0.000720958
0.00060084
0.000494056
0.000371162
0.000208996
-3.78646e-05
-0.00039733
-0.000820512
-0.00121834
-0.0015242
-0.00171495
-0.0018378
-0.00187283
0.00161715
0.00157566
0.00144564
0.00125207
0.00106394
0.000916801
0.000771355
0.000627441
0.000490514
0.000349464
0.000203031
3.72914e-05
-0.000189264
-0.000521317
-0.000935485
-0.00134709
-0.00168463
-0.00190322
-0.00202111
-0.00203879
0.00160025
0.00154773
0.00140273
0.00119691
0.000984552
0.000807457
0.000656313
0.000521782
0.000379765
0.000216288
4.63262e-05
-0.000131194
-0.000347322
-0.000651885
-0.00104378
-0.00145624
-0.00181589
-0.00206519
-0.0021897
-0.0021933
0.0015773
0.00151517
0.0013546
0.00113622
0.000905904
0.000701438
0.000536181
0.000404724
0.000263715
9.04662e-05
-9.82648e-05
-0.00029033
-0.000503992
-0.000785553
-0.00114966
-0.00154971
-0.0019191
-0.00219502
-0.00233618
-0.00233305
0.00154809
0.00147772
0.00130225
0.0010701
0.00082477
0.000597371
0.000414725
0.000278932
0.000140047
-3.32542e-05
-0.000231964
-0.000437198
-0.000652167
-0.000915072
-0.0012514
-0.00163085
-0.0019968
-0.00228991
-0.00245175
-0.00245116
0.00151256
0.00143515
0.00124602
0.000998771
0.000739691
0.000493756
0.000292817
0.000146882
8.44673e-06
-0.00015904
-0.000357659
-0.000570731
-0.00078766
-0.00103373
-0.00134139
-0.00169607
-0.0020491
-0.00234824
-0.00252905
-0.00253885
0.0014708
0.00138713
0.0011863
0.000923151
0.000649148
0.000387892
0.000170106
1.0546e-05
-0.000130517
-0.000289602
-0.00048042
-0.000692294
-0.000907902
-0.00113727
-0.00141318
-0.00173808
-0.00207049
-0.00236437
-0.00255815
-0.00258348
0.00142307
0.00133372
0.00112266
0.000843875
0.000553661
0.000277265
4.44816e-05
-0.000129526
-0.00027635
-0.000426975
-0.000604832
-0.000805505
-0.00101109
-0.00122144
-0.00146169
-0.00174777
-0.00204943
-0.002325
-0.00252104
-0.002563
0.00136983
0.00127524
0.00105492
0.000760547
0.000453446
0.00016239
-8.56039e-05
-0.000275458
-0.00043073
-0.000574969
-0.000736868
-0.000916956
-0.00109849
-0.00128097
-0.00147919
-0.00171526
-0.00197192
-0.00221148
-0.00239036
-0.00243799
0.00131169
0.0012117
0.000982372
0.000673662
0.000348692
4.2668e-05
-0.000220312
-0.000428207
-0.000596154
-0.00073944
-0.000887979
-0.00104176
-0.00118277
-0.00131558
-0.00145247
-0.00161677
-0.00181097
-0.00200306
-0.002152
-0.00219119
0.00125134
0.00114332
0.000903633
0.00058242
0.000241018
-8.1893e-05
-0.000361617
-0.000588578
-0.000772921
-0.000923477
-0.00106645
-0.00120362
-0.00130948
-0.00136889
-0.00138755
-0.0013886
-0.0014075
-0.00146878
-0.0015779
-0.00168934
0.00118926
0.00107064
0.000820189
0.000486502
0.000129344
-0.000210569
-0.000508764
-0.000758248
-0.00096324
-0.00112909
-0.00127545
-0.0014036
-0.00151077
-0.00158053
-0.00158388
-0.0014614
-0.00114106
-0.000637605
-0.00010682
0.000267944
0.00112175
0.00099669
0.000736915
0.000389615
1.28289e-05
-0.000347612
-0.000663368
-0.000934177
-0.00116458
-0.00135788
-0.00152092
-0.00162703
-0.00164043
-0.00150517
-0.00116045
-0.000622476
-2.55253e-05
0.000470698
0.000751527
0.000765744
0.00105027
0.000921513
0.000655368
0.000295748
-0.000105724
-0.000495507
-0.000837822
-0.00112613
-0.0013584
-0.00153212
-0.00164919
-0.00166104
-0.00147688
-0.00109135
-0.000604437
-0.00013512
0.000242118
0.000509266
0.000655058
0.000627324
0.000979625
0.00084318
0.000571774
0.000207051
-0.000206078
-0.000625022
-0.00102856
-0.00138503
-0.00164861
-0.00175443
-0.00164211
-0.00133352
-0.000930509
-0.000522128
-0.000135369
0.000218
0.000516565
0.000737295
0.000835959
0.000753253
0.000913906
0.000769759
0.000482209
9.93566e-05
-0.00031802
-0.00070889
-0.00103315
-0.00127224
-0.0014278
-0.00151261
-0.00155331
-0.00155545
-0.001472
-0.00125032
-0.000840617
-0.000245911
0.00038631
0.000882196
0.00112993
0.00108485
0.000854531
0.000706982
0.00042349
3.84948e-05
-0.000408171
-0.000866293
-0.00128243
-0.00158203
-0.00169843
-0.00161182
-0.00136781
-0.0010395
-0.000674203
-0.000306202
3.1779e-05
0.000330177
0.000570532
0.000734129
0.000789614
0.00066875
0.000802257
0.000640777
0.000341909
-5.10817e-05
-0.000486621
-0.000903746
-0.00126174
-0.00151829
-0.00163935
-0.00160926
-0.00141841
-0.00111761
-0.000787198
-0.000465492
-0.000177063
8.14148e-05
0.000312881
0.000494969
0.000579384
0.00049362
0.0285836
0.0199713
0.00921295
0.00141443
-0.00151143
-0.00125085
-0.000667597
-0.000812387
-0.00125818
-0.00156658
-0.00183747
-0.00214438
-0.00238668
-0.00262374
-0.00296244
-0.00332354
-0.00360858
-0.00385889
-0.0041243
-0.00440262
-0.00470669
-0.00501906
-0.00528817
-0.00553155
-0.00580004
-0.00609523
-0.00638613
-0.00665958
-0.00693568
-0.00722627
-0.00751431
-0.00779444
-0.00808161
-0.0083736
-0.00866376
-0.00895462
-0.00925354
-0.00955663
-0.00986868
-0.0101897
-0.0105069
-0.0108247
-0.0111599
-0.0115072
-0.0118394
-0.012164
-0.0125064
-0.012863
-0.0132158
-0.0135697
-0.013941
-0.0143217
-0.0147124
-0.0151129
-0.0155136
-0.0159073
-0.0163011
-0.0167054
-0.0171097
-0.0175293
-0.0179679
-0.0184163
-0.0188769
-0.0193365
-0.0197964
-0.0202555
-0.0207283
-0.0212126
-0.0216998
-0.0222037
-0.0227076
-0.0232246
-0.0237543
-0.024279
-0.0248191
-0.0253611
-0.0259162
-0.0264824
-0.0270373
-0.027627
-0.0282251
-0.0288168
-0.0294468
-0.0300503
-0.0306627
-0.0313235
-0.0319561
-0.0325961
-0.033285
-0.03394
-0.0345913
-0.0353056
-0.0360157
-0.0366959
-0.0374233
-0.0381668
-0.0389025
-0.0396414
-0.0403501
-0.0410715
0.0270487
0.0197704
0.00929192
0.00155053
-0.00141959
-0.00120386
-0.000638074
-0.000793022
-0.00124516
-0.0015566
-0.00182925
-0.00213761
-0.00238071
-0.00261816
-0.00295747
-0.0033193
-0.0036048
-0.00385542
-0.00412115
-0.00439972
-0.00470404
-0.00501673
-0.00528607
-0.00552957
-0.00579818
-0.00609353
-0.00638458
-0.00665814
-0.00693431
-0.007225
-0.00751313
-0.00779332
-0.00808054
-0.00837259
-0.0086628
-0.0089537
-0.00925266
-0.00955578
-0.00986787
-0.010189
-0.0105062
-0.010824
-0.0111593
-0.0115066
-0.0118388
-0.0121634
-0.0125059
-0.0128625
-0.0132154
-0.0135692
-0.0139406
-0.0143213
-0.014712
-0.0151125
-0.0155133
-0.0159069
-0.0163008
-0.0167051
-0.0171094
-0.017529
-0.0179676
-0.018416
-0.0188766
-0.0193362
-0.0197961
-0.0202552
-0.0207281
-0.0212124
-0.0216996
-0.0222035
-0.0227075
-0.0232244
-0.0237541
-0.0242788
-0.0248189
-0.025361
-0.0259161
-0.0264822
-0.0270371
-0.0276268
-0.028225
-0.0288167
-0.0294467
-0.0300502
-0.0306626
-0.0313235
-0.0319561
-0.032596
-0.0332849
-0.0339399
-0.0345913
-0.0353055
-0.0360157
-0.0366959
-0.0374233
-0.0381668
-0.0389024
-0.0396413
-0.0403501
-0.0410715
0.0258532
0.0196542
0.00948971
0.00181299
-0.00126214
-0.00114455
-0.000610726
-0.000771646
-0.00122719
-0.0015423
-0.00181829
-0.00212936
-0.00237419
-0.0026126
-0.00295263
-0.00331504
-0.00360097
-0.003852
-0.00411814
-0.00439698
-0.00470154
-0.00501453
-0.00528408
-0.0055277
-0.00579647
-0.00609199
-0.00638318
-0.00665683
-0.00693308
-0.00722386
-0.00751208
-0.00779231
-0.00807959
-0.00837171
-0.00866196
-0.00895289
-0.00925189
-0.00955505
-0.00986716
-0.0101883
-0.0105056
-0.0108234
-0.0111587
-0.011506
-0.0118383
-0.0121629
-0.0125054
-0.0128621
-0.0132149
-0.0135688
-0.0139402
-0.0143209
-0.0147116
-0.0151121
-0.0155129
-0.0159066
-0.0163005
-0.0167048
-0.0171091
-0.0175287
-0.0179674
-0.0184158
-0.0188764
-0.019336
-0.0197959
-0.020255
-0.0207279
-0.0212122
-0.0216994
-0.0222033
-0.0227073
-0.0232242
-0.0237539
-0.0242787
-0.0248188
-0.0253608
-0.025916
-0.0264821
-0.027037
-0.0276267
-0.0282249
-0.0288165
-0.0294466
-0.0300501
-0.0306625
-0.0313234
-0.031956
-0.032596
-0.0332848
-0.0339399
-0.0345912
-0.0353054
-0.0360157
-0.0366958
-0.0374233
-0.0381667
-0.0389024
-0.0396413
-0.0403501
-0.0410716
0.024762
0.0194997
0.00971383
0.00212672
-0.00105689
-0.00106586
-0.000574411
-0.000740433
-0.00119881
-0.00151974
-0.00180137
-0.00211671
-0.00236489
-0.00260559
-0.00294663
-0.00330939
-0.00359578
-0.00384759
-0.00411445
-0.00439367
-0.00469842
-0.00501167
-0.00528153
-0.00552544
-0.00579444
-0.00609014
-0.00638149
-0.0066553
-0.00693168
-0.00722259
-0.00751091
-0.00779122
-0.00807857
-0.00837076
-0.00866107
-0.00895205
-0.0092511
-0.00955429
-0.00986642
-0.0101876
-0.0105049
-0.0108227
-0.011158
-0.0115054
-0.0118377
-0.0121624
-0.0125049
-0.0128616
-0.0132145
-0.0135684
-0.0139397
-0.0143205
-0.0147112
-0.0151118
-0.0155126
-0.0159063
-0.0163002
-0.0167045
-0.0171089
-0.0175284
-0.0179671
-0.0184156
-0.0188762
-0.0193358
-0.0197957
-0.0202548
-0.0207277
-0.021212
-0.0216992
-0.0222032
-0.0227071
-0.0232241
-0.0237538
-0.0242785
-0.0248187
-0.0253607
-0.0259158
-0.026482
-0.0270369
-0.0276266
-0.0282248
-0.0288164
-0.0294465
-0.03005
-0.0306624
-0.0313233
-0.0319559
-0.0325959
-0.0332848
-0.0339398
-0.0345911
-0.0353054
-0.0360156
-0.0366958
-0.0374232
-0.0381667
-0.0389024
-0.0396413
-0.0403501
-0.0410717
0.0236654
0.0192673
0.00992814
0.00245155
-0.000835182
-0.000978826
-0.000534737
-0.000702686
-0.00116108
-0.0014886
-0.00177736
-0.00209806
-0.00235134
-0.00259607
-0.0029386
-0.00330146
-0.00358842
-0.00384151
-0.0041096
-0.00438941
-0.00469424
-0.0050076
-0.00527792
-0.00552242
-0.00579178
-0.00608762
-0.00637918
-0.00665327
-0.0069299
-0.00722097
-0.00750942
-0.00778987
-0.00807735
-0.00836962
-0.00865999
-0.00895106
-0.0092502
-0.00955342
-0.00986556
-0.0101868
-0.0105041
-0.010822
-0.0111573
-0.0115048
-0.0118371
-0.0121618
-0.0125043
-0.012861
-0.013214
-0.0135678
-0.0139393
-0.01432
-0.0147108
-0.0151114
-0.0155123
-0.015906
-0.0162998
-0.0167042
-0.0171085
-0.0175281
-0.0179668
-0.0184153
-0.0188759
-0.0193355
-0.0197955
-0.0202546
-0.0207274
-0.0212118
-0.021699
-0.022203
-0.0227069
-0.0232239
-0.0237536
-0.0242783
-0.0248185
-0.0253605
-0.0259157
-0.0264819
-0.0270368
-0.0276265
-0.0282246
-0.0288163
-0.0294464
-0.0300499
-0.0306623
-0.0313232
-0.0319558
-0.0325958
-0.0332847
-0.0339397
-0.0345911
-0.0353053
-0.0360156
-0.0366957
-0.0374232
-0.0381667
-0.0389024
-0.0396413
-0.0403501
-0.0410719
0.022571
0.018969
0.0101346
0.00278183
-0.000604756
-0.000888024
-0.00049601
-0.000663691
-0.00111906
-0.00145255
-0.00174858
-0.00207477
-0.00233407
-0.00258401
-0.00292833
-0.00329108
-0.00357877
-0.00383361
-0.00410341
-0.0043841
-0.00468887
-0.0050021
-0.00527305
-0.00551851
-0.00578836
-0.00608426
-0.00637601
-0.00665054
-0.00692755
-0.00721882
-0.00750746
-0.00778815
-0.00807582
-0.0083682
-0.00865866
-0.00894986
-0.00924914
-0.00955242
-0.00986453
-0.0101858
-0.0105033
-0.0108212
-0.0111565
-0.0115039
-0.0118363
-0.012161
-0.0125036
-0.0128604
-0.0132133
-0.0135672
-0.0139387
-0.0143195
-0.0147103
-0.0151109
-0.0155118
-0.0159056
-0.0162995
-0.0167038
-0.0171081
-0.0175277
-0.0179665
-0.018415
-0.0188756
-0.0193353
-0.0197952
-0.0202543
-0.0207272
-0.0212116
-0.0216988
-0.0222028
-0.0227067
-0.0232237
-0.0237534
-0.0242781
-0.0248183
-0.0253604
-0.0259155
-0.0264817
-0.0270366
-0.0276263
-0.0282245
-0.0288162
-0.0294463
-0.0300498
-0.0306621
-0.0313231
-0.0319557
-0.0325957
-0.0332846
-0.0339397
-0.034591
-0.0353053
-0.0360155
-0.0366957
-0.0374231
-0.0381666
-0.0389023
-0.0396413
-0.0403502
-0.0410722
0.0214969
0.0186185
0.0103324
0.00311501
-0.000367157
-0.000793563
-0.000458691
-0.000625268
-0.00107515
-0.00141381
-0.00171716
-0.00204887
-0.00231451
-0.00257013
-0.00291629
-0.0032788
-0.0035673
-0.00382421
-0.00409607
-0.00437783
-0.00468241
-0.0049953
-0.00526699
-0.00551376
-0.00578421
-0.00608005
-0.00637195
-0.00664706
-0.00692455
-0.00721604
-0.00750491
-0.00778595
-0.00807391
-0.00836642
-0.008657
-0.00894839
-0.00924787
-0.00955122
-0.00986327
-0.0101845
-0.0105022
-0.0108203
-0.0111556
-0.0115029
-0.0118353
-0.0121602
-0.0125029
-0.0128596
-0.0132125
-0.0135665
-0.013938
-0.0143189
-0.0147097
-0.0151104
-0.0155113
-0.0159051
-0.016299
-0.0167034
-0.0171077
-0.0175273
-0.0179661
-0.0184146
-0.0188753
-0.0193349
-0.0197949
-0.020254
-0.0207269
-0.0212113
-0.0216985
-0.0222025
-0.0227065
-0.0232235
-0.0237532
-0.0242779
-0.0248181
-0.0253602
-0.0259153
-0.0264815
-0.0270364
-0.0276261
-0.0282243
-0.028816
-0.0294462
-0.0300497
-0.030662
-0.031323
-0.0319556
-0.0325956
-0.0332845
-0.0339396
-0.0345909
-0.0353052
-0.0360155
-0.0366956
-0.037423
-0.0381666
-0.0389023
-0.0396413
-0.0403503
-0.0410726
0.0204565
0.0182191
0.0105131
0.00344721
-0.000122142
-0.000693595
-0.000421931
-0.000587801
-0.00102993
-0.00137295
-0.00168392
-0.00202143
-0.00229358
-0.00255505
-0.00290311
-0.00326529
-0.00355464
-0.00381378
-0.00408786
-0.00437081
-0.00467513
-0.00498753
-0.00526004
-0.00550833
-0.00577948
-0.00607516
-0.00636717
-0.00664293
-0.00692096
-0.00721262
-0.00750173
-0.00778322
-0.00807156
-0.00836424
-0.00865498
-0.00894662
-0.00924638
-0.00954983
-0.00986175
-0.010183
-0.0105009
-0.0108193
-0.0111545
-0.0115017
-0.0118342
-0.0121593
-0.012502
-0.0128587
-0.0132116
-0.0135656
-0.0139372
-0.0143181
-0.014709
-0.0151097
-0.0155107
-0.0159046
-0.0162985
-0.0167029
-0.0171071
-0.0175267
-0.0179656
-0.0184141
-0.0188748
-0.0193345
-0.0197945
-0.0202537
-0.0207266
-0.021211
-0.0216982
-0.0222022
-0.0227062
-0.0232232
-0.023753
-0.0242777
-0.0248179
-0.0253599
-0.025915
-0.0264813
-0.0270362
-0.0276259
-0.0282241
-0.0288158
-0.029446
-0.0300495
-0.0306618
-0.0313228
-0.0319555
-0.0325954
-0.0332844
-0.0339394
-0.0345907
-0.0353051
-0.0360153
-0.0366955
-0.0374229
-0.0381665
-0.0389022
-0.0396413
-0.0403504
-0.0410731
0.0194584
0.0177706
0.0106678
0.00377675
0.0001325
-0.000585535
-0.000384768
-0.000551706
-0.000983932
-0.00133023
-0.00164915
-0.00199285
-0.00227166
-0.00253917
-0.00288922
-0.00325103
-0.00354121
-0.00380262
-0.00407902
-0.00436322
-0.00466726
-0.00497911
-0.00525248
-0.00550243
-0.00577431
-0.0060698
-0.0063619
-0.00663836
-0.00691693
-0.0072087
-0.00749802
-0.00778001
-0.00806877
-0.00836166
-0.00865259
-0.00894454
-0.00924465
-0.00954824
-0.00985999
-0.0101811
-0.0104993
-0.010818
-0.0111532
-0.0115001
-0.0118328
-0.0121582
-0.0125011
-0.0128577
-0.0132105
-0.0135645
-0.0139362
-0.0143172
-0.0147081
-0.0151088
-0.0155099
-0.0159039
-0.016298
-0.0167023
-0.0171065
-0.0175261
-0.017965
-0.0184136
-0.0188743
-0.019334
-0.019794
-0.0202533
-0.0207262
-0.0212106
-0.0216978
-0.0222019
-0.0227059
-0.0232229
-0.0237527
-0.0242774
-0.0248176
-0.0253596
-0.0259148
-0.026481
-0.0270359
-0.0276256
-0.0282239
-0.0288155
-0.0294457
-0.0300492
-0.0306615
-0.0313226
-0.0319552
-0.0325952
-0.0332842
-0.0339392
-0.0345906
-0.0353049
-0.0360152
-0.0366954
-0.0374228
-0.0381664
-0.0389021
-0.0396412
-0.0403505
-0.0410736
0.0185081
0.0172758
0.0107909
0.00410338
0.000398503
-0.000467665
-0.000346826
-0.000517863
-0.000938036
-0.00128595
-0.00161284
-0.00196316
-0.00224893
-0.00252269
-0.00287485
-0.00323627
-0.00352721
-0.0037909
-0.00406966
-0.00435518
-0.00465897
-0.00497026
-0.00524449
-0.00549614
-0.00576881
-0.00606412
-0.0063563
-0.00663349
-0.0069126
-0.00720442
-0.00749391
-0.00777641
-0.00806561
-0.00835873
-0.00864988
-0.00894219
-0.00924271
-0.00954647
-0.00985803
-0.010179
-0.0104975
-0.0108165
-0.0111516
-0.0114983
-0.0118311
-0.012157
-0.0125001
-0.0128565
-0.0132094
-0.0135634
-0.0139351
-0.0143161
-0.014707
-0.0151077
-0.0155089
-0.0159032
-0.0162974
-0.0167017
-0.0171058
-0.0175253
-0.0179642
-0.0184129
-0.0188737
-0.0193333
-0.0197934
-0.0202527
-0.0207257
-0.0212101
-0.0216973
-0.0222014
-0.0227055
-0.0232225
-0.0237523
-0.024277
-0.0248173
-0.0253593
-0.0259144
-0.0264806
-0.0270355
-0.0276253
-0.0282235
-0.0288152
-0.0294454
-0.0300489
-0.0306612
-0.0313223
-0.031955
-0.032595
-0.0332839
-0.033939
-0.0345904
-0.0353047
-0.036015
-0.0366952
-0.0374227
-0.0381662
-0.0389019