/*--------------------------------*- C++ -*----------------------------------*\
| =========                 |                                                 |
| \\      /  F ield         | OpenFOAM: The Open Source CFD Toolbox           |
|  \\    /   O peration     | Version:  3.0.1                                 |
|   \\  /    A nd           | Web:      www.OpenFOAM.org                      |
|    \\/     M anipulation  |                                                 |
\*---------------------------------------------------------------------------*/
FoamFile
{
    version     2.0;
    format      ascii;
    class       surfaceScalarField;
    location    "1.2";
    object      phi;
}
// * * * * * * * * * * * * * * * * * * * * * * * * * * * * * * * * * * * * * //

dimensions      [0 3 -1 0 0 0 0];

internalField   nonuniform List<scalar> 
19000
(
1.17269e-06
-3.98421e-07
1.17268e-06
2.86326e-07
1.19541e-06
-1.66316e-07
1.17094e-06
1.94293e-07
1.14904e-06
-7.53224e-08
1.1641e-06
1.10862e-07
1.20497e-06
-2.351e-07
1.19216e-06
-4.65369e-07
1.20831e-06
-1.73331e-07
1.19761e-06
1.15205e-07
1.18599e-06
1.24655e-07
1.18282e-06
4.06122e-07
1.17392e-06
3.19835e-07
1.17123e-06
1.89964e-07
1.17116e-06
-1.14248e-08
1.15954e-06
-1.1867e-07
1.17207e-06
2.67648e-08
1.1522e-06
-2.54062e-07
1.16768e-06
3.55524e-08
-3.01571e-07
1.10102e-06
1.23e-06
-4.04157e-07
1.23251e-06
2.83808e-07
1.25445e-06
-1.88247e-07
1.23271e-06
2.16027e-07
1.20859e-06
-5.12038e-08
1.22556e-06
9.39002e-08
1.26302e-06
-2.72562e-07
1.25105e-06
-4.53404e-07
1.266e-06
-1.88274e-07
1.26016e-06
1.21036e-07
1.24165e-06
1.43167e-07
1.24739e-06
4.00384e-07
1.22898e-06
3.38242e-07
1.23673e-06
1.82219e-07
1.22423e-06
1.07381e-09
1.22637e-06
-1.20806e-07
1.22023e-06
3.29037e-08
1.22129e-06
-2.55122e-07
1.21069e-06
4.61496e-08
-2.78281e-07
1.1874e-06
1.28827e-06
-4.09647e-07
1.29691e-06
2.75174e-07
1.31439e-06
-2.05734e-07
1.29973e-06
2.3069e-07
1.27276e-06
-2.42341e-08
1.29094e-06
7.57237e-08
1.32011e-06
-3.01737e-07
1.31444e-06
-4.4773e-07
1.32382e-06
-1.97659e-07
1.32651e-06
1.18347e-07
1.30189e-06
1.67793e-07
1.31088e-06
3.91389e-07
1.29185e-06
3.57271e-07
1.29777e-06
1.76306e-07
1.28525e-06
1.35902e-08
1.28552e-06
-1.21072e-07
1.2832e-06
3.52154e-08
1.28049e-06
-2.52408e-07
1.28079e-06
4.58522e-08
-2.52474e-07
1.25498e-06
1.34782e-06
-4.13364e-07
1.36222e-06
2.60779e-07
1.37374e-06
-2.17261e-07
1.36629e-06
2.38143e-07
1.33943e-06
2.62791e-09
1.35661e-06
5.85435e-08
1.37521e-06
-3.20343e-07
1.37662e-06
-4.49135e-07
1.38242e-06
-2.03462e-07
1.39015e-06
1.10616e-07
1.36763e-06
1.90315e-07
1.37231e-06
3.86712e-07
1.36021e-06
3.69369e-07
1.35941e-06
1.77107e-07
1.3494e-06
2.36034e-08
1.34647e-06
-1.18148e-07
1.3457e-06
3.59864e-08
1.34026e-06
-2.46969e-07
1.34266e-06
4.3453e-08
-2.24886e-07
1.31507e-06
1.40939e-06
-4.14401e-07
1.42692e-06
2.43249e-07
1.43244e-06
-2.2278e-07
1.42993e-06
2.40657e-07
1.40743e-06
2.51197e-08
1.42152e-06
4.44545e-08
1.43028e-06
-3.29098e-07
1.43575e-06
-4.54606e-07
1.44167e-06
-2.09381e-07
1.45088e-06
1.01402e-07
1.43613e-06
2.05068e-07
1.43665e-06
3.86191e-07
1.42985e-06
3.76168e-07
1.42515e-06
1.81806e-07
1.41514e-06
3.3611e-08
1.41092e-06
-1.13919e-07
1.40994e-06
3.69649e-08
1.40217e-06
-2.39199e-07
1.40546e-06
4.01569e-08
-1.96392e-07
1.37697e-06
1.47414e-06
-4.12866e-07
1.49143e-06
2.25964e-07
1.4921e-06
-2.23458e-07
1.49185e-06
2.40914e-07
1.47673e-06
4.02409e-08
1.48716e-06
3.40232e-08
1.48839e-06
-3.30329e-07
1.49422e-06
-4.60436e-07
1.50165e-06
-2.16816e-07
1.51128e-06
9.17805e-08
1.5044e-06
2.11944e-07
1.50423e-06
3.86362e-07
1.49978e-06
3.80622e-07
1.49373e-06
1.87855e-07
1.48329e-06
4.40435e-08
1.47822e-06
-1.08849e-07
1.47755e-06
3.76349e-08
1.46738e-06
-2.29022e-07
1.47158e-06
3.59548e-08
-1.67473e-07
1.44266e-06
1.54295e-06
-4.09595e-07
1.55743e-06
2.11484e-07
1.55486e-06
-2.2089e-07
1.55531e-06
2.40464e-07
1.54789e-06
4.76593e-08
1.55564e-06
2.62745e-08
1.55187e-06
-3.26558e-07
1.55556e-06
-4.6413e-07
1.56324e-06
-2.24493e-07
1.57316e-06
8.18592e-08
1.57172e-06
2.1338e-07
1.57308e-06
3.85003e-07
1.5701e-06
3.83597e-07
1.56416e-06
1.93796e-07
1.55407e-06
5.41346e-08
1.54848e-06
-1.03255e-07
1.54858e-06
3.75388e-08
1.53634e-06
-2.16785e-07
1.5413e-06
3.09922e-08
-1.38689e-07
1.51252e-06
1.61605e-06
-4.05512e-07
1.62674e-06
2.00789e-07
1.62228e-06
-2.16428e-07
1.6232e-06
2.3954e-07
1.62175e-06
4.91092e-08
1.62824e-06
1.97914e-08
1.62158e-06
-3.19903e-07
1.62211e-06
-4.64657e-07
1.62785e-06
-2.30237e-07
1.63749e-06
7.22251e-08
1.63901e-06
2.11851e-07
1.64244e-06
3.81582e-07
1.64126e-06
3.84772e-07
1.63658e-06
1.98478e-07
1.62767e-06
6.30469e-08
1.6219e-06
-9.7492e-08
1.62302e-06
3.64198e-08
1.60916e-06
-2.02923e-07
1.61475e-06
2.54012e-08
-1.10607e-07
1.58667e-06
1.69325e-06
-4.01184e-07
1.70054e-06
1.93493e-07
1.69509e-06
-2.10975e-07
1.69688e-06
2.37745e-07
1.69904e-06
4.69503e-08
1.7052e-06
1.36363e-08
1.69723e-06
-3.11936e-07
1.69463e-06
-4.62049e-07
1.69683e-06
-2.32446e-07
1.70518e-06
6.38839e-08
1.70787e-06
2.09162e-07
1.71314e-06
3.76306e-07
1.71423e-06
3.83679e-07
1.71162e-06
2.01093e-07
1.70451e-06
7.01547e-08
1.69872e-06
-9.17052e-08
1.70098e-06
3.41694e-08
1.68584e-06
-1.87786e-07
1.69186e-06
1.93743e-08
-8.37966e-08
1.66505e-06
1.7743e-06
-3.9676e-07
1.77925e-06
1.8854e-07
1.77334e-06
-2.05067e-07
1.77636e-06
2.34731e-07
1.78015e-06
4.31573e-08
1.78626e-06
7.52341e-09
1.77798e-06
-3.03654e-07
1.77285e-06
-4.56919e-07
1.77103e-06
-2.30623e-07
1.77734e-06
5.75684e-08
1.78009e-06
2.06411e-07
1.78685e-06
3.69553e-07
1.79043e-06
3.80096e-07
1.79015e-06
2.01376e-07
1.78514e-06
7.51647e-08
1.77923e-06
-8.57964e-08
1.78253e-06
3.08678e-08
1.76641e-06
-1.71667e-07
1.77251e-06
1.32734e-08
-5.88327e-08
1.74755e-06
1.85914e-06
-3.9215e-07
1.86285e-06
1.84826e-07
1.85678e-06
-1.98998e-07
1.86107e-06
2.30439e-07
1.86521e-06
3.90263e-08
1.87119e-06
1.53877e-09
1.86305e-06
-2.9551e-07
1.85619e-06
-4.50061e-07
1.85079e-06
-2.25229e-07
1.85502e-06
5.33408e-08
1.85737e-06
2.04061e-07
1.86522e-06
3.61707e-07
1.87119e-06
3.74123e-07
1.87296e-06
1.99605e-07
1.86999e-06
7.81376e-08
1.86372e-06
-7.95272e-08
1.86781e-06
2.67732e-08
1.85101e-06
-1.54864e-07
1.85668e-06
7.60049e-09
-3.62349e-08
1.83408e-06
1.9479e-06
-3.87209e-07
1.95121e-06
1.81517e-07
1.94511e-06
-1.92903e-07
1.95054e-06
2.25013e-07
1.95428e-06
3.52806e-08
1.95998e-06
-4.15952e-09
1.95203e-06
-2.87553e-07
1.94416e-06
-4.42192e-07
1.93618e-06
-2.1725e-07
1.93883e-06
5.06951e-08
1.94082e-06
2.02068e-07
1.94939e-06
3.53131e-07
1.95741e-06
3.66112e-07
1.9606e-06
1.96413e-07
1.95934e-06
7.93965e-08
1.95249e-06
-7.26764e-08
1.95698e-06
2.22826e-08
1.93983e-06
-1.3772e-07
1.94453e-06
2.90826e-09
-1.63979e-08
1.92469e-06
2.04081e-06
-3.81827e-07
2.04424e-06
1.7808e-07
2.03814e-06
-1.86799e-07
2.04452e-06
2.18634e-07
2.04754e-06
3.22597e-08
2.05287e-06
-9.49322e-09
2.04494e-06
-2.79619e-07
2.03657e-06
-4.33823e-07
2.02708e-06
-2.07759e-07
2.02886e-06
4.89173e-08
2.03082e-06
2.00099e-07
2.03981e-06
3.44149e-07
2.04941e-06
3.56506e-07
2.05328e-06
1.92541e-07
2.05331e-06
7.93701e-08
2.04577e-06
-6.51325e-08
2.05021e-06
1.78421e-08
2.03312e-06
-1.20632e-07
2.03637e-06
-3.36748e-10
4.88459e-10
2.01948e-06
2.13812e-06
-3.75942e-07
2.14198e-06
1.74214e-07
2.13581e-06
-1.80622e-07
2.143e-06
2.11437e-07
2.14519e-06
3.00684e-08
2.15019e-06
-1.44927e-08
2.14206e-06
-2.71485e-07
2.13348e-06
-4.25242e-07
2.12334e-06
-1.97626e-07
2.12485e-06
4.74134e-08
2.1272e-06
1.97752e-07
2.13632e-06
3.35029e-07
2.14711e-06
3.45712e-07
2.15103e-06
1.88617e-07
2.15192e-06
7.84831e-08
2.14375e-06
-5.6958e-08
2.14768e-06
1.3906e-08
2.13107e-06
-1.04017e-07
2.13264e-06
-1.90657e-09
1.45055e-08
2.11862e-06
2.24008e-06
-3.69536e-07
2.24453e-06
1.69762e-07
2.23817e-06
-1.74256e-07
2.24611e-06
2.03496e-07
2.2475e-06
2.86792e-08
2.25227e-06
-1.92672e-08
2.24377e-06
-2.62981e-07
2.23508e-06
-4.16554e-07
2.22488e-06
-1.87428e-07
2.22643e-06
4.58637e-08
2.22948e-06
1.94702e-07
2.23853e-06
3.25979e-07
2.25021e-06
3.34036e-07
2.2538e-06
1.85031e-07
2.25516e-06
7.71157e-08
2.24658e-06
-4.83711e-08
2.24961e-06
1.08725e-08
2.23384e-06
-8.82449e-08
2.23377e-06
-1.83742e-09
2.59687e-08
2.22231e-06
2.34695e-06
-3.62607e-07
2.35206e-06
1.64644e-07
2.34537e-06
-1.67566e-07
2.35402e-06
1.94852e-07
2.35469e-06
2.80043e-08
2.35938e-06
-2.39579e-08
2.35043e-06
-2.54031e-07
2.34163e-06
-4.07749e-07
2.33169e-06
-1.77487e-07
2.33334e-06
4.42177e-08
2.33728e-06
1.90754e-07
2.34611e-06
3.1715e-07
2.35845e-06
3.21695e-07
2.36158e-06
1.81904e-07
2.36309e-06
7.56023e-08
2.35441e-06
-3.96915e-08
2.35621e-06
9.07564e-09
2.34158e-06
-7.36118e-08
2.34008e-06
-3.40297e-10
3.531e-08
2.33074e-06
2.45895e-06
-3.55166e-07
2.46478e-06
1.58819e-07
2.45764e-06
-1.60423e-07
2.46695e-06
1.85534e-07
2.46701e-06
2.79455e-08
2.47175e-06
-2.86928e-08
2.46237e-06
-2.44657e-07
2.45338e-06
-3.98753e-07
2.44386e-06
-1.67965e-07
2.44547e-06
4.2605e-08
2.45039e-06
1.85834e-07
2.4589e-06
3.08639e-07
2.47173e-06
3.08868e-07
2.4745e-06
1.79132e-07
2.47585e-06
7.42445e-08
2.46741e-06
-3.12464e-08
2.46784e-06
8.64334e-09
2.45441e-06
-6.01837e-08
2.45182e-06
2.25155e-09
4.29754e-08
2.44416e-06
2.57635e-06
-3.47221e-07
2.5829e-06
1.52266e-07
2.57521e-06
-1.52727e-07
2.58517e-06
1.75569e-07
2.5847e-06
2.84191e-08
2.58956e-06
-3.35544e-08
2.57986e-06
-2.34953e-07
2.57057e-06
-3.89465e-07
2.56155e-06
-1.58946e-07
2.56292e-06
4.12318e-08
2.5688e-06
1.79959e-07
2.57696e-06
3.00477e-07
2.59008e-06
2.95748e-07
2.59275e-06
1.76466e-07
2.59367e-06
7.33168e-08
2.58574e-06
-2.33093e-08
2.58489e-06
9.49288e-09
2.57248e-06
-4.77777e-08
2.56921e-06
5.52452e-09
4.93623e-08
2.56282e-06
2.69939e-06
-3.38779e-07
2.70668e-06
1.4497e-07
2.69837e-06
-1.44415e-07
2.70895e-06
1.64991e-07
2.70801e-06
2.93588e-08
2.71302e-06
-3.8565e-08
2.70312e-06
-2.2506e-07
2.69343e-06
-3.79774e-07
2.68499e-06
-1.50504e-07
2.68592e-06
4.03032e-08
2.69268e-06
1.73203e-07
2.70053e-06
2.92622e-07
2.71371e-06
2.82568e-07
2.71659e-06
1.7359e-07
2.71685e-06
7.30521e-08
2.70958e-06
-1.60376e-08
2.70769e-06
1.13809e-08
2.696e-06
-3.60855e-08
2.69243e-06
9.09119e-09
5.47619e-08
2.68703e-06
2.82833e-06
-3.29843e-07
2.83638e-06
1.36925e-07
2.82742e-06
-1.35458e-07
2.83857e-06
1.53842e-07
2.83722e-06
3.07049e-08
2.84235e-06
-4.36874e-08
2.83243e-06
-2.15139e-07
2.82221e-06
-3.69559e-07
2.81443e-06
-1.42723e-07
2.81477e-06
3.99673e-08
2.82228e-06
1.65686e-07
2.82995e-06
2.84957e-07
2.84292e-06
2.69599e-07
2.84629e-06
1.70216e-07
2.84575e-06
7.35958e-08
2.83914e-06
-9.42859e-09
2.83655e-06
1.39724e-08
2.82531e-06
-2.48477e-08
2.82166e-06
1.27371e-08
5.92995e-08
2.81712e-06
2.96347e-06
-3.20416e-07
2.97226e-06
1.28129e-07
2.96267e-06
-1.25862e-07
2.97433e-06
1.42176e-07
2.97265e-06
3.23896e-08
2.9778e-06
-4.88331e-08
2.96802e-06
-2.05368e-07
2.95716e-06
-3.58695e-07
2.95012e-06
-1.35683e-07
2.9498e-06
4.02846e-08
2.95791e-06
1.57579e-07
2.96557e-06
2.773e-07
2.97804e-06
2.57122e-07
2.98212e-06
1.66138e-07
2.98075e-06
7.49693e-08
2.97462e-06
-3.29946e-09
2.97171e-06
1.6886e-08
2.96078e-06
-1.39182e-08
2.95709e-06
1.64223e-08
6.29875e-08
2.9534e-06
3.10509e-06
-3.10502e-07
3.11463e-06
1.18593e-07
3.10442e-06
-1.15657e-07
3.11654e-06
1.30063e-07
3.1146e-06
3.43267e-08
3.11964e-06
-5.38737e-08
3.1102e-06
-1.95929e-07
3.09857e-06
-3.47062e-07
3.09232e-06
-1.29438e-07
3.0914e-06
4.12125e-08
3.09987e-06
1.49105e-07
3.10775e-06
2.69423e-07
3.11947e-06
2.45399e-07
3.12434e-06
1.6127e-07
3.12226e-06
7.70476e-08
3.11632e-06
2.64519e-09
3.11338e-06
1.98182e-08
3.1028e-06
-3.3362e-09
3.09895e-06
2.02695e-08
6.57813e-08
3.09616e-06
3.25352e-06
-3.00108e-07
3.26377e-06
1.08337e-07
3.25302e-06
-1.04903e-07
3.26548e-06
1.17601e-07
3.2634e-06
3.64067e-08
3.26818e-06
-5.86502e-08
3.25925e-06
-1.87007e-07
3.24676e-06
-3.34568e-07
3.24131e-06
-1.23987e-07
3.23991e-06
4.2613e-08
3.24849e-06
1.40518e-07
3.25681e-06
2.6111e-07
3.26759e-06
2.3462e-07
3.2732e-06
1.5566e-07
3.27065e-06
7.95935e-08
3.26459e-06
8.70861e-09
3.2618e-06
2.26045e-08
3.25173e-06
6.73468e-09
3.24756e-06
2.44382e-08
6.76763e-08
3.24567e-06
3.40907e-06
-2.89246e-07
3.42001e-06
9.73945e-08
3.40879e-06
-9.36843e-08
3.42148e-06
1.04918e-07
3.41939e-06
3.84956e-08
3.42372e-06
-6.29862e-08
3.41548e-06
-1.78765e-07
3.40209e-06
-3.21179e-07
3.39736e-06
-1.1925e-07
3.3957e-06
4.42725e-08
3.40413e-06
1.32086e-07
3.41304e-06
2.52195e-07
3.4228e-06
2.24865e-07
3.42896e-06
1.49496e-07
3.42624e-06
8.23159e-08
3.41985e-06
1.50985e-08
3.41721e-06
2.52435e-08
3.40788e-06
1.60698e-08
3.40329e-06
2.90299e-08
6.87729e-08
3.40219e-06
3.5721e-06
-2.77936e-07
3.58368e-06
8.58144e-08
3.57211e-06
-8.21188e-08
3.58486e-06
9.21721e-08
3.58292e-06
4.0438e-08
3.58663e-06
-6.66981e-08
3.57919e-06
-1.71329e-07
3.56495e-06
-3.06939e-07
3.56079e-06
-1.15082e-07
3.55912e-06
4.59431e-08
3.56714e-06
1.24056e-07
3.57674e-06
2.42597e-07
3.58551e-06
2.16098e-07
3.59194e-06
1.43061e-07
3.58932e-06
8.49436e-08
3.58253e-06
2.18883e-08
3.57993e-06
2.78426e-08
3.57153e-06
2.44644e-08
3.56653e-06
3.40352e-08
6.92821e-08
3.56602e-06
3.74297e-06
-2.662e-07
3.75512e-06
7.36632e-08
3.74336e-06
-7.03575e-08
3.75598e-06
7.9556e-08
3.75435e-06
4.20667e-08
3.75726e-06
-6.96158e-08
3.7507e-06
-1.64768e-07
3.73574e-06
-2.91972e-07
3.73194e-06
-1.11288e-07
3.73051e-06
4.73781e-08
3.73794e-06
1.16629e-07
3.74819e-06
2.32342e-07
3.75611e-06
2.08179e-07
3.76248e-06
1.36688e-07
3.76017e-06
8.72536e-08
3.753e-06
2.9058e-08
3.75034e-06
3.05078e-08
3.74299e-06
3.18076e-08
3.73769e-06
3.93342e-08
6.94841e-08
3.73749e-06
3.92206e-06
-2.54071e-07
3.9347e-06
6.1027e-08
3.92293e-06
-5.85872e-08
3.93519e-06
6.72885e-08
3.93404e-06
4.32187e-08
3.93603e-06
-7.16076e-08
3.93034e-06
-1.59079e-07
3.91485e-06
-2.76477e-07
3.91121e-06
-1.07654e-07
3.91022e-06
4.83764e-08
3.91692e-06
1.09923e-07
3.92771e-06
2.21559e-07
3.93496e-06
2.00923e-07
3.94098e-06
1.30671e-07
3.93909e-06
8.91454e-08
3.93166e-06
3.64824e-08
3.92884e-06
3.3334e-08
3.92259e-06
3.80588e-08
3.91718e-06
4.47429e-08
6.96789e-08
3.91698e-06
4.10977e-06
-2.41589e-07
4.12278e-06
4.80141e-08
4.11122e-06
-4.70306e-08
4.12291e-06
5.5606e-08
4.12237e-06
4.37549e-08
4.12337e-06
-7.26032e-08
4.11847e-06
-1.54184e-07
4.10269e-06
-2.60693e-07
4.09902e-06
-1.03987e-07
4.09858e-06
4.88189e-08
4.10455e-06
1.03953e-07
4.11564e-06
2.10466e-07
4.12242e-06
1.94143e-07
4.12787e-06
1.2522e-07
4.12641e-06
9.06079e-08
4.1189e-06
4.3992e-08
4.11586e-06
3.63734e-08
4.11068e-06
4.32357e-08
4.10536e-06
5.00633e-08
7.0131e-08
4.10491e-06
4.30652e-06
-2.28802e-07
4.31977e-06
3.47556e-08
4.30868e-06
-3.59391e-08
4.31954e-06
4.47484e-08
4.31972e-06
4.35745e-08
4.31973e-06
-7.26133e-08
4.31547e-06
-1.49921e-07
4.29967e-06
-2.44898e-07
4.2958e-06
-1.00112e-07
4.29595e-06
4.86648e-08
4.30124e-06
9.86606e-08
4.31239e-06
1.99321e-07
4.31883e-06
1.87703e-07
4.32358e-06
1.20467e-07
4.32254e-06
9.16548e-08
4.31515e-06
5.13824e-08
4.31184e-06
3.96772e-08
4.30768e-06
4.73958e-08
4.30266e-06
5.50837e-08
7.10424e-08
4.30175e-06
4.51274e-06
-2.15767e-07
4.52609e-06
2.14073e-08
4.51573e-06
-2.55808e-08
4.52554e-06
3.49341e-08
4.52649e-06
4.26295e-08
4.52559e-06
-7.1718e-08
4.52175e-06
-1.46078e-07
4.50621e-06
-2.29358e-07
4.50201e-06
-9.59165e-08
4.50274e-06
4.79421e-08
4.50743e-06
9.39705e-08
4.51837e-06
1.88373e-07
4.52452e-06
1.81557e-07
4.52854e-06
1.16443e-07
4.52789e-06
9.23066e-08
4.52084e-06
5.84347e-08
4.51725e-06
4.32652e-08
4.51396e-06
5.06823e-08
4.5095e-06
5.95528e-08
7.25036e-08
4.50803e-06
4.7289e-06
-2.02548e-07
4.74216e-06
8.14769e-09
4.73279e-06
-1.62165e-08
4.7414e-06
2.63217e-08
4.74308e-06
4.09502e-08
4.74143e-06
-7.00644e-08
4.73777e-06
-1.42415e-07
4.7227e-06
-2.14289e-07
4.71814e-06
-9.13579e-08
4.71935e-06
4.67364e-08
4.7235e-06
8.98194e-08
4.73403e-06
1.77835e-07
4.73991e-06
1.75685e-07
4.7432e-06
1.13149e-07
4.74295e-06
9.25562e-08
4.73644e-06
6.49447e-08
4.73259e-06
4.7116e-08
4.72997e-06
5.3299e-08
4.72625e-06
6.32711e-08
7.44078e-08
4.72435e-06
4.95547e-06
-1.89218e-07
4.96844e-06
-4.827e-09
4.96029e-06
-8.06393e-09
4.96765e-06
1.89645e-08
4.96996e-06
3.86414e-08
4.96771e-06
-6.78229e-08
4.96403e-06
-1.38735e-07
4.94955e-06
-1.9981e-07
4.94466e-06
-8.64648e-08
4.94622e-06
4.51772e-08
4.94987e-06
8.61668e-08
4.95981e-06
1.67902e-07
4.96546e-06
1.70031e-07
4.9681e-06
1.1051e-07
4.96824e-06
9.24194e-08
4.96242e-06
7.07666e-08
4.95836e-06
5.11709e-08
4.95619e-06
5.54708e-08
4.95332e-06
6.61452e-08
7.64727e-08
4.95125e-06
5.19295e-06
-1.75852e-07
5.20544e-06
-1.73149e-08
5.19863e-06
-1.25876e-09
5.2048e-06
1.27936e-08
5.20762e-06
3.58243e-08
5.20489e-06
-6.50944e-08
5.20111e-06
-1.34952e-07
5.18723e-06
-1.85932e-07
5.18203e-06
-8.1267e-08
5.18385e-06
4.3364e-08
5.187e-06
8.30164e-08
5.19617e-06
1.58728e-07
5.20166e-06
1.6454e-07
5.20387e-06
1.08304e-07
5.20431e-06
9.19793e-08
5.19925e-06
7.58269e-08
5.19508e-06
5.53432e-08
5.19317e-06
5.73793e-08
5.19106e-06
6.82483e-08
7.83356e-08
5.1892e-06
5.44187e-06
-1.62531e-07
5.45369e-06
-2.91344e-08
5.44825e-06
4.18298e-09
5.45344e-06
7.59988e-09
5.45663e-06
3.26366e-08
5.45343e-06
-6.19008e-08
5.44957e-06
-1.31084e-07
5.43621e-06
-1.72576e-07
5.43072e-06
-7.57833e-08
5.43271e-06
4.13773e-08
5.4354e-06
8.03293e-08
5.44373e-06
1.50396e-07
5.44913e-06
1.59145e-07
5.45104e-06
1.06389e-07
5.45176e-06
9.12624e-08
5.44745e-06
8.01383e-08
5.44323e-06
5.95574e-08
5.4415e-06
5.91141e-08
5.43998e-06
6.97632e-08
7.97089e-08
5.43861e-06
5.70276e-06
-1.49334e-07
5.71376e-06
-4.0132e-08
5.70963e-06
8.31301e-09
5.71409e-06
3.13401e-09
5.71756e-06
2.91673e-08
5.71384e-06
-5.81779e-08
5.70994e-06
-1.27184e-07
5.69703e-06
-1.59664e-07
5.6912e-06
-6.9959e-08
5.69328e-06
3.93044e-08
5.69562e-06
7.79817e-08
5.70313e-06
1.42894e-07
5.70844e-06
1.53827e-07
5.71018e-06
1.04657e-07
5.71115e-06
9.02912e-08
5.70756e-06
8.37212e-08
5.70335e-06
6.3771e-08
5.70175e-06
6.07173e-08
5.70066e-06
7.08481e-08
8.05107e-08
5.69986e-06
5.9762e-06
-1.3634e-07
5.98625e-06
-5.0187e-08
5.98334e-06
1.12284e-08
5.98729e-06
-8.13491e-10
5.99105e-06
2.54027e-08
5.98667e-06
-5.37981e-08
5.98276e-06
-1.23269e-07
5.97031e-06
-1.47213e-07
5.96396e-06
-6.36103e-08
5.966e-06
3.72622e-08
5.96819e-06
7.57902e-08
5.97496e-06
1.36121e-07
5.98018e-06
1.48614e-07
5.98183e-06
1.03006e-07
5.98303e-06
8.90914e-08
5.98019e-06
8.65572e-08
5.976e-06
6.79587e-08
5.97448e-06
6.22392e-08
5.97376e-06
7.15662e-08
8.08401e-08
5.97343e-06
6.26278e-06
-1.2363e-07
6.27181e-06
-5.92137e-08
6.26998e-06
1.30564e-08
6.27351e-06
-4.34236e-09
6.2777e-06
2.12123e-08
6.27257e-06
-4.86675e-08
6.26853e-06
-1.19229e-07
6.25665e-06
-1.35342e-07
6.24959e-06
-5.65475e-08
6.25134e-06
3.5511e-08
6.25362e-06
7.35158e-08
6.2599e-06
1.29843e-07
6.26493e-06
1.43581e-07
6.26654e-06
1.01398e-07
6.268e-06
8.763e-08
6.26591e-06
8.86479e-08
6.26181e-06
7.20529e-08
6.26027e-06
6.3779e-08
6.25992e-06
7.19146e-08
8.08298e-08
6.25993e-06
6.56312e-06
-1.11285e-07
6.57105e-06
-6.71406e-08
6.57022e-06
1.38905e-08
6.57328e-06
-7.4075e-09
6.57811e-06
1.63837e-08
6.57226e-06
-4.28207e-08
6.56778e-06
-1.14747e-07
6.55674e-06
-1.243e-07
6.54882e-06
-4.86286e-08
6.54996e-06
3.43722e-08
6.55259e-06
7.08867e-08
6.55861e-06
1.23823e-07
6.56343e-06
1.38757e-07
6.56491e-06
9.99173e-08
6.56661e-06
8.59385e-08
6.56533e-06
8.99228e-08
6.56142e-06
7.5966e-08
6.55975e-06
6.54501e-08
6.55976e-06
7.19035e-08
8.05366e-08
6.56005e-06
6.87789e-06
-9.93879e-08
6.88465e-06
-7.39009e-08
6.88476e-06
1.37873e-08
6.88725e-06
-9.89659e-09
6.89289e-06
1.07432e-08
6.88658e-06
-3.65146e-08
6.88115e-06
-1.09314e-07
6.87116e-06
-1.14313e-07
6.86262e-06
-4.00919e-08
6.86281e-06
3.41901e-08
6.86588e-06
6.78146e-08
6.87181e-06
1.17892e-07
6.87641e-06
1.34153e-07
6.87765e-06
9.86778e-08
6.87945e-06
8.41399e-08
6.87907e-06
9.03013e-08
6.87549e-06
7.95434e-08
6.87359e-06
6.73565e-08
6.87388e-06
7.1608e-08
7.9928e-08
6.87449e-06
7.20777e-06
-8.80227e-08
7.21328e-06
-7.94113e-08
7.21433e-06
1.27349e-08
7.21607e-06
-1.16296e-08
7.22267e-06
4.14264e-09
7.21627e-06
-3.01194e-08
7.20941e-06
-1.02453e-07
7.20042e-06
-1.05325e-07
7.19185e-06
-3.15146e-08
7.19088e-06
3.51557e-08
7.19404e-06
6.46538e-08
7.20017e-06
1.1177e-07
7.20458e-06
1.29738e-07
7.20552e-06
9.77388e-08
7.20724e-06
8.24149e-08
7.20774e-06
8.98019e-08
7.2047e-06
8.25869e-08
7.20255e-06
6.95087e-08
7.20297e-06
7.11909e-08
7.89434e-08
7.20395e-06
7.55348e-06
-7.72776e-08
7.55763e-06
-8.35648e-08
7.55967e-06
1.06975e-08
7.56048e-06
-1.24416e-08
7.56794e-06
-3.31595e-09
7.56207e-06
-2.4252e-08
7.55343e-06
-9.38069e-08
7.5451e-06
-9.69977e-08
7.5372e-06
-2.36119e-08
7.53511e-06
3.72473e-08
7.53784e-06
6.19192e-08
7.54424e-06
1.05373e-07
7.54864e-06
1.25336e-07
7.5493e-06
9.70803e-08
7.55081e-06
8.09029e-08
7.55197e-06
8.86387e-08
7.5497e-06
8.48589e-08
7.54741e-06
7.18038e-08
7.54774e-06
7.08591e-08
7.75709e-08
7.54911e-06
7.91578e-06
-6.72419e-08
7.91846e-06
-8.62514e-08
7.92151e-06
7.64524e-09
7.92127e-06
-1.2196e-08
7.92916e-06
-1.12052e-08
7.92458e-06
-1.96768e-08
7.91412e-06
-8.33445e-08
7.90596e-06
-8.88379e-08
7.89918e-06
-1.68336e-08
7.89631e-06
4.01199e-08
7.89816e-06
6.00651e-08
7.90464e-06
9.88918e-08
7.90931e-06
1.20674e-07
7.90977e-06
9.66204e-08
7.91094e-06
7.97333e-08
7.91259e-06
8.69812e-08
7.91114e-06
8.63177e-08
7.90892e-06
7.40236e-08
7.90901e-06
7.07613e-08
7.59063e-08
7.91068e-06
8.29544e-06
-5.80049e-08
8.29656e-06
-8.73715e-08
8.3007e-06
3.50971e-09
8.29927e-06
-1.07627e-08
8.30703e-06
-1.89692e-08
8.30429e-06
-1.6935e-08
8.29241e-06
-7.14624e-08
8.28382e-06
-8.02553e-08
8.27837e-06
-1.13775e-08
8.2752e-06
4.32901e-08
8.27595e-06
5.93087e-08
8.28219e-06
9.26515e-08
8.28725e-06
1.15618e-07
8.2877e-06
9.61713e-08
8.28849e-06
7.89462e-08
8.29043e-06
8.50386e-08
8.28976e-06
8.69874e-08
8.28781e-06
7.59727e-08
8.28767e-06
7.09043e-08
7.41533e-08
8.28942e-06
8.69331e-06
-4.96518e-08
8.6928e-06
-8.6863e-08
8.69806e-06
-1.74889e-09
8.69543e-06
-8.13103e-09
8.70243e-06
-2.59759e-08
8.70168e-06
-1.61845e-08
8.68914e-06
-5.89178e-08
8.6796e-06
-7.07177e-08
8.67541e-06
-7.18465e-09
8.67248e-06
4.6223e-08
8.67221e-06
5.9577e-08
8.67776e-06
8.71012e-08
8.68318e-06
1.10198e-07
8.68393e-06
9.54184e-08
8.68429e-06
7.85842e-08
8.68635e-06
8.298e-08
8.68642e-06
8.69142e-08
8.68484e-06
7.75537e-08
8.68456e-06
7.11834e-08
7.25165e-08
8.6862e-06
9.11022e-06
-4.22565e-08
9.10809e-06
-8.47242e-08
9.1144e-06
-8.0604e-09
9.11084e-06
-4.5698e-09
9.11629e-06
-3.14263e-08
9.11748e-06
-1.73836e-08
9.10509e-06
-4.65188e-08
9.09431e-06
-5.99468e-08
9.09101e-06
-3.88284e-09
9.08888e-06
4.83604e-08
9.08783e-06
6.06193e-08
9.09235e-06
8.25818e-08
9.09794e-06
1.04606e-07
9.0992e-06
9.41617e-08
9.09928e-06
7.8507e-08
9.10126e-06
8.1003e-08
9.102e-06
8.61649e-08
9.10085e-06
7.87081e-08
9.10054e-06
7.1493e-08
7.10739e-08
9.10198e-06
9.54708e-06
-3.58717e-08
9.54341e-06
-8.10585e-08
9.5505e-06
-1.51527e-08
9.54655e-06
-6.14016e-10
9.54957e-06
-3.44504e-08
9.55258e-06
-2.03894e-08
9.54108e-06
-3.50262e-08
9.52909e-06
-4.79547e-08
9.52611e-06
-8.98861e-10
9.52509e-06
4.93736e-08
9.52371e-06
6.19992e-08
9.52707e-06
7.92232e-08
9.53248e-06
9.91946e-08
9.5343e-06
9.23463e-08
9.53436e-06
7.84417e-08
9.53611e-06
7.92569e-08
9.53741e-06
8.48675e-08
9.53675e-06
7.9367e-08
9.53646e-06
7.17867e-08
6.97892e-08
9.53774e-06
1.00048e-05
-3.05235e-08
9.99976e-06
-7.60307e-08
1.00072e-05
-2.26307e-08
1.00035e-05
3.09166e-09
1.00036e-05
-3.44805e-08
1.00079e-05
-2.46832e-08
9.99819e-06
-2.53657e-08
9.98515e-06
-3.49147e-08
9.98179e-06
2.46944e-09
9.98192e-06
4.92386e-08
9.98072e-06
6.31964e-08
9.98299e-06
7.69577e-08
9.98785e-06
9.43361e-08
9.99013e-06
9.00598e-08
9.9904e-06
7.81753e-08
9.99194e-06
7.77217e-08
9.9936e-06
8.32081e-08
9.9935e-06
7.94666e-08
9.99326e-06
7.20211e-08
6.86292e-08
9.99442e-06
1.04843e-05
-2.62031e-08
1.04781e-05
-6.98548e-08
1.04855e-05
-3.00354e-08
1.04828e-05
5.88718e-09
1.04796e-05
-3.13725e-08
1.04842e-05
-2.92882e-08
1.04772e-05
-1.83659e-08
1.04637e-05
-2.13844e-08
1.04593e-05
6.89052e-09
1.04603e-05
4.82853e-08
1.04597e-05
6.37746e-08
1.04611e-05
7.55067e-08
1.04652e-05
9.02481e-08
1.04677e-05
8.75343e-08
1.04683e-05
7.76192e-08
1.04697e-05
7.62693e-08
1.04716e-05
8.13478e-08
1.04721e-05
7.90129e-08
1.0472e-05
7.20985e-08
6.76226e-08
1.0473e-05
1.09867e-05
-2.28615e-08
1.09796e-05
-6.27406e-08
1.09865e-05
-3.69352e-08
1.09852e-05
7.16421e-09
1.09792e-05
-2.54366e-08
1.09828e-05
-3.27935e-08
1.0979e-05
-1.45919e-08
1.09659e-05
-8.27256e-09
1.096e-05
1.27731e-08
1.09611e-05
4.71443e-08
1.09614e-05
6.3493e-08
1.09625e-05
7.44261e-08
1.09657e-05
8.69901e-08
1.09682e-05
8.50577e-08
1.09691e-05
7.67557e-08
1.09705e-05
7.48264e-08
1.09725e-05
7.9334e-08
1.09735e-05
7.80805e-08
1.09737e-05
7.18902e-08
6.67844e-08
1.09745e-05
1.15129e-05
-2.04014e-08
1.15051e-05
-5.49422e-08
1.15111e-05
-4.28864e-08
1.15118e-05
6.4638e-09
1.15037e-05
-1.73663e-08
1.15048e-05
-3.39448e-08
1.15041e-05
-1.38781e-08
1.14927e-05
3.19589e-09
1.14852e-05
2.0213e-08
1.14858e-05
4.65893e-08
1.14869e-05
6.23987e-08
1.1488e-05
7.32481e-08
1.14906e-05
8.44182e-08
1.14928e-05
8.28473e-08
1.14939e-05
7.56638e-08
1.14954e-05
7.33833e-08
1.14975e-05
7.71861e-08
1.14988e-05
7.67589e-08
1.14994e-05
7.13125e-08
6.60103e-08
1.15002e-05
1.20641e-05
-1.86737e-08
1.2056e-05
-4.68144e-08
1.20605e-05
-4.73866e-08
1.20632e-05
3.685e-09
1.20543e-05
-8.38698e-09
1.20521e-05
-3.17526e-08
1.20536e-05
-1.5386e-08
1.20449e-05
1.19063e-08
1.20363e-05
2.8768e-08
1.20356e-05
4.73181e-08
1.20372e-05
6.08316e-08
1.20387e-05
7.1658e-08
1.20409e-05
8.22385e-08
1.20428e-05
8.09604e-08
1.20439e-05
7.45303e-08
1.20454e-05
7.18872e-08
1.20477e-05
7.49689e-08
1.20493e-05
7.51094e-08
1.20502e-05
7.03787e-08
6.51006e-08
1.20512e-05
1.26414e-05
-1.74841e-08
1.26334e-05
-3.8784e-08
1.26359e-05
-4.99311e-08
1.26405e-05
-8.89918e-10
1.26319e-05
1.62634e-10
1.26262e-05
-2.60514e-08
1.26283e-05
-1.74467e-08
1.26232e-05
1.70327e-08
1.26145e-05
3.74018e-08
1.26121e-05
4.97533e-08
1.26135e-05
5.94033e-08
1.26156e-05
6.95688e-08
1.26178e-05
8.00503e-08
1.26194e-05
7.93741e-08
1.26205e-05
7.34633e-08
1.2622e-05
7.03811e-08
1.26242e-05
7.27201e-08
1.26261e-05
7.31842e-08
1.26273e-05
6.91937e-08
6.38933e-08
1.26285e-05
1.32461e-05
-1.66116e-08
1.32386e-05
-3.13333e-08
1.32388e-05
-5.01208e-08
1.32445e-05
-6.59686e-09
1.32376e-05
7.09377e-09
1.3229e-05
-1.74491e-08
1.32297e-05
-1.81674e-08
1.32282e-05
1.84851e-08
1.32209e-05
4.47516e-08
1.32169e-05
5.37613e-08
1.32174e-05
5.88465e-08
1.32199e-05
6.71508e-08
1.32224e-05
7.75501e-08
1.32238e-05
7.79114e-08
1.32248e-05
7.24744e-08
1.32262e-05
6.89634e-08
1.32285e-05
7.04507e-08
1.32307e-05
7.10205e-08
1.3232e-05
6.78512e-08
6.24108e-08
1.32335e-05
1.38794e-05
-1.58416e-08
1.38729e-05
-2.48196e-08
1.38707e-05
-4.79164e-08
1.38765e-05
-1.24635e-08
1.38719e-05
1.1723e-08
1.38616e-05
-7.12722e-09
1.38596e-05
-1.6209e-08
1.38609e-05
1.7221e-08
1.38562e-05
4.94795e-08
1.38513e-05
5.86372e-08
1.38506e-05
5.95682e-08
1.38529e-05
6.48706e-08
1.38557e-05
7.47299e-08
1.38574e-05
7.61812e-08
1.38582e-05
7.16513e-08
1.38596e-05
6.75897e-08
1.38617e-05
6.83025e-08
1.38642e-05
6.86133e-08
1.38657e-05
6.63415e-08
6.08272e-08
1.38672e-05
1.45428e-05
-1.49881e-08
1.45373e-05
-1.93241e-08
1.45331e-05
-4.36862e-08
1.4538e-05
-1.73554e-08
1.45359e-05
1.38429e-08
1.45253e-05
3.40276e-09
1.45203e-05
-1.12246e-08
1.45225e-05
1.50215e-08
1.45211e-05
5.08897e-08
1.45166e-05
6.31861e-08
1.45145e-05
6.16077e-08
1.45161e-05
6.3342e-08
1.45191e-05
7.16851e-08
1.45213e-05
7.40439e-08
1.45222e-05
7.06967e-08
1.45234e-05
6.63716e-08
1.45255e-05
6.62784e-08
1.4528e-05
6.61002e-08
1.45298e-05
6.45506e-08
5.92863e-08
1.45313e-05
1.52378e-05
-1.39035e-08
1.52334e-05
-1.48812e-08
1.52275e-05
-3.78504e-08
1.52307e-05
-2.05124e-08
1.52307e-05
1.38143e-08
1.52213e-05
1.2804e-08
1.52138e-05
-3.72576e-09
1.52151e-05
1.37148e-08
1.52167e-05
4.92801e-08
1.52138e-05
6.60632e-08
1.52109e-05
6.4589e-08
1.52113e-05
6.29074e-08
1.52142e-05
6.87867e-08
1.52167e-05
7.15634e-08
1.5218e-05
6.9374e-08
1.52192e-05
6.51698e-08
1.5221e-05
6.44508e-08
1.52235e-05
6.3603e-08
1.52256e-05
6.24511e-08
5.77374e-08
1.52272e-05
1.59659e-05
-1.24864e-08
1.59625e-05
-1.14396e-08
1.59556e-05
-3.09418e-08
1.59566e-05
-2.15807e-08
1.59582e-05
1.22858e-08
1.59507e-05
2.02403e-08
1.59418e-05
5.1985e-09
1.5941e-05
1.45192e-08
1.59444e-05
4.58875e-08
1.59438e-05
6.66035e-08
1.59409e-05
6.74991e-08
1.59403e-05
6.3578e-08
1.59425e-05
6.65899e-08
1.59453e-05
6.87677e-08
1.59469e-05
6.77169e-08
1.59483e-05
6.375e-08
1.595e-05
6.27428e-08
1.59524e-05
6.12467e-08
1.59547e-05
6.01306e-08
5.60427e-08
1.59564e-05
1.67288e-05
-1.0719e-08
1.67262e-05
-8.84408e-09
1.67189e-05
-2.35752e-08
1.67177e-05
-2.04144e-08
1.672e-05
9.97837e-09
1.67148e-05
2.54819e-08
1.67057e-05
1.42575e-08
1.67026e-05
1.76204e-08
1.6706e-05
4.24688e-08
1.67078e-05
6.4864e-08
1.6706e-05
6.92316e-08
1.67045e-05
6.50777e-08
1.67058e-05
6.53009e-08
1.67085e-05
6.60676e-08
1.67105e-05
6.57114e-08
1.67122e-05
6.20537e-08
1.6714e-05
6.09618e-08
1.67162e-05
5.90457e-08
1.67186e-05
5.77063e-08
5.41416e-08
1.67205e-05
1.75283e-05
-8.67474e-09
1.75264e-05
-6.92611e-09
1.75193e-05
-1.6433e-08
1.75159e-05
-1.70795e-08
1.7518e-05
7.9097e-09
1.7515e-05
2.84602e-08
1.75067e-05
2.25575e-08
1.75019e-05
2.2443e-08
1.75039e-05
4.04076e-08
1.75073e-05
6.15385e-08
1.75072e-05
6.9325e-08
1.75057e-05
6.65656e-08
1.75061e-05
6.4899e-08
1.75083e-05
6.38942e-08
1.75105e-05
6.34369e-08
1.75124e-05
6.0149e-08
1.75144e-05
5.89631e-08
1.75166e-05
5.69107e-08
1.7519e-05
5.52615e-08
5.20611e-08
1.75211e-05
1.83661e-05
-6.46708e-09
1.83646e-05
-5.37168e-09
1.83582e-05
-1.00469e-08
1.83532e-05
-1.2047e-08
1.83542e-05
6.86431e-09
1.8353e-05
2.96668e-08
1.83462e-05
2.94024e-08
1.83404e-05
2.8206e-08
1.83407e-05
4.01061e-08
1.83443e-05
5.79285e-08
1.83458e-05
6.78441e-08
1.83451e-05
6.72096e-08
1.83449e-05
6.5142e-08
1.83465e-05
6.23016e-08
1.83486e-05
6.12894e-08
1.83508e-05
5.80052e-08
1.8353e-05
5.67609e-08
1.83552e-05
5.47098e-08
1.83576e-05
5.28748e-08
4.9769e-08
1.83599e-05
1.92441e-05
-4.22614e-09
1.92426e-05
-3.83133e-09
1.92372e-05
-4.67282e-09
1.92312e-05
-6.03276e-09
1.92308e-05
7.29613e-09
1.92307e-05
2.97724e-08