/*--------------------------------*- C++ -*----------------------------------*\
| =========                 |                                                 |
| \\      /  F ield         | OpenFOAM: The Open Source CFD Toolbox           |
|  \\    /   O peration     | Version:  3.0.1                                 |
|   \\  /    A nd           | Web:      www.OpenFOAM.org                      |
|    \\/     M anipulation  |                                                 |
\*---------------------------------------------------------------------------*/
FoamFile
{
    version     2.0;
    format      ascii;
    class       volVectorField;
    location    "1.2";
    object      U;
}
// * * * * * * * * * * * * * * * * * * * * * * * * * * * * * * * * * * * * * //

dimensions      [0 1 -1 0 0 0 0];

internalField   nonuniform List<vector> 
9600
(
(0.856467 -0.00397667 0)
(1.14123 0.00312508 0)
(0.875049 -0.00177642 0)
(1.1609 0.00229728 0)
(0.854833 -0.00131412 0)
(1.1013 0.0018681 0)
(0.899856 -0.00339933 0)
(1.15388 -0.00859696 0)
(0.894581 -0.00318771 0)
(1.1649 0.00236305 0)
(0.896054 0.00269757 0)
(1.12408 0.0103198 0)
(0.907871 0.00870749 0)
(1.09496 0.00570158 0)
(0.916654 -0.000445007 0)
(1.08189 -0.00446665 0)
(0.90751 0.00131161 0)
(1.09117 -0.0110942 0)
(0.884366 0.00187809 0)
(1.10368 -0.0157932 0)
(0.867522 -0.00403401 0)
(1.13216 0.00313446 0)
(0.890229 -0.00211048 0)
(1.14918 0.002622 0)
(0.875621 -0.000882586 0)
(1.08911 0.00158577 0)
(0.920378 -0.00426839 0)
(1.13541 -0.0083525 0)
(0.915242 -0.00359549 0)
(1.14452 0.0025175 0)
(0.923513 0.003074 0)
(1.09767 0.0103045 0)
(0.945668 0.00909769 0)
(1.05754 0.00565493 0)
(0.966834 -0.00018544 0)
(1.03041 -0.00424897 0)
(0.974178 0.00101788 0)
(1.0163 -0.0110359 0)
(0.9791 0.00210438 0)
(0.994793 -0.0173875 0)
(0.887227 -0.00409695 0)
(1.11339 0.00307611 0)
(0.915573 -0.00237653 0)
(1.12594 0.00292763 0)
(0.908976 -0.000518631 0)
(1.06807 0.00130193 0)
(0.949877 -0.00486733 0)
(1.10346 -0.0081576 0)
(0.949861 -0.00386424 0)
(1.10874 0.0026081 0)
(0.965548 0.00365074 0)
(1.06033 0.0101209 0)
(0.985671 0.00968705 0)
(1.02709 0.00540261 0)
(0.997579 0.000260373 0)
(1.00591 -0.00435429 0)
(0.997496 0.00133837 0)
(1.00146 -0.010708 0)
(0.995351 0.00187946 0)
(0.996833 -0.0129215 0)
(0.912134 -0.00414376 0)
(1.08771 0.00294717 0)
(0.943789 -0.00253983 0)
(1.09512 0.00307209 0)
(0.9435 -0.000138359 0)
(1.04472 0.00101916 0)
(0.976968 -0.00524888 0)
(1.0672 -0.00814741 0)
(0.982171 -0.00397915 0)
(1.07242 0.00248688 0)
(0.999271 0.0042437 0)
(1.03432 0.0099195 0)
(1.00769 0.0101178 0)
(1.01644 0.00531283 0)
(1.00668 0.000619084 0)
(1.00139 -0.00432523 0)
(1.00101 0.00142213 0)
(0.999537 -0.010674 0)
(0.996282 0.00207229 0)
(0.995946 -0.0115829 0)
(0.937835 -0.00416362 0)
(1.06033 0.00276427 0)
(0.968281 -0.00263461 0)
(1.0632 0.00311754 0)
(0.970419 0.000221122 0)
(1.02547 0.00077585 0)
(0.994712 -0.00546511 0)
(1.03639 -0.0082343 0)
(1.00132 -0.00406827 0)
(1.04554 0.00227747 0)
(1.01619 0.00468648 0)
(1.02301 0.00985089 0)
(1.01626 0.0103666 0)
(1.01502 0.00541359 0)
(1.00893 0.00094186 0)
(1.00095 -0.00417708 0)
(1.00166 0.00142994 0)
(0.998396 -0.0103714 0)
(0.995618 0.00194947 0)
(0.993998 -0.0104123 0)
(0.960306 -0.00415631 0)
(1.03639 0.00256111 0)
(0.985333 -0.00266793 0)
(1.03617 0.00312555 0)
(0.986764 0.000489906 0)
(1.01317 0.000587523 0)
(1.00298 -0.00553756 0)
(1.01549 -0.00834194 0)
(1.00728 -0.00420171 0)
(1.02848 0.00207173 0)
(1.02022 0.00492694 0)
(1.01879 0.0098626 0)
(1.01862 0.0105233 0)
(1.01504 0.00558685 0)
(1.00943 0.0012879 0)
(1.00103 -0.00400678 0)
(1.00164 0.00146238 0)
(0.99824 -0.00997308 0)
(0.994612 0.00175139 0)
(0.993107 -0.00902236 0)
(0.977213 -0.00412938 0)
(1.01892 0.00237843 0)
(0.99469 -0.00265249 0)
(1.01702 0.0031212 0)
(0.99447 0.000642034 0)
(1.0069 0.000451618 0)
(1.00545 -0.00550318 0)
(1.00371 -0.00842428 0)
(1.00556 -0.0043644 0)
(1.01743 0.00186573 0)
(1.01755 0.00500892 0)
(1.01552 0.00985549 0)
(1.01774 0.0106295 0)
(1.01427 0.00577344 0)
(1.00891 0.00163434 0)
(1.00116 -0.00381243 0)
(1.00131 0.00147965 0)
(0.998546 -0.00947835 0)
(0.99397 0.00153173 0)
(0.992764 -0.00757352 0)
(0.988267 -0.00409197 0)
(1.00812 0.00223908 0)
(0.998402 -0.00260748 0)
(1.00553 0.00311212 0)
(0.997246 0.000695795 0)
(1.00431 0.00034868 0)
(1.00569 -0.00540452 0)
(0.998223 -0.00845504 0)
(1.00134 -0.00450776 0)
(1.00934 0.00165348 0)
(1.01212 0.00499674 0)
(1.01119 0.00979131 0)
(1.01474 0.010689 0)
(1.01248 0.00593755 0)
(1.00779 0.00195444 0)
(1.00111 -0.00360578 0)
(1.00101 0.00145889 0)
(0.998872 -0.00890828 0)
(0.993851 0.00128526 0)
(0.992739 -0.00613316 0)
(0.994603 -0.00405073 0)
(1.00237 0.00214385 0)
(0.999062 -0.0025464 0)
(0.999662 0.00309569 0)
(0.998065 0.000684083 0)
(1.00342 0.000255623 0)
(1.00546 -0.00527435 0)
(0.99634 -0.00842899 0)
(0.997392 -0.00459241 0)
(1.00299 0.0014559 0)
(1.00601 0.00494078 0)
(1.00602 0.00967487 0)
(1.01063 0.0106914 0)
(1.01008 0.00604732 0)
(1.00647 0.00222342 0)
(1.00092 -0.00339625 0)
(1.0008 0.00138693 0)
(0.999115 -0.00827732 0)
(0.994031 0.00101659 0)
(0.992927 -0.00475311 0)
(0.997822 -0.00400822 0)
(0.999663 0.00208163 0)
(0.998611 -0.00247715 0)
(0.99718 0.00306523 0)
(0.998422 0.000637799 0)
(1.00311 0.000162043 0)
(1.0052 -0.00513484 0)
(0.996182 -0.00835401 0)
(0.994539 -0.0045965 0)
(0.998139 0.00129683 0)
(1.00042 0.00487417 0)
(1.00094 0.00951825 0)
(1.00647 0.0106255 0)
(1.00767 0.00608653 0)
(1.00528 0.00242134 0)
(1.00073 -0.00318218 0)
(1.00066 0.00126858 0)
(0.999273 -0.00760061 0)
(0.994295 0.000735289 0)
(0.993186 -0.00346147 0)
(0.999292 -0.00396404 0)
(0.99847 0.00203855 0)
(0.99805 -0.00240486 0)
(0.996428 0.00301764 0)
(0.998756 0.000579027 0)
(1.00291 6.88419e-05 0)
(1.00484 -0.00499735 0)
(0.996596 -0.00824284 0)
(0.992716 -0.00452086 0)
(0.994758 0.00118512 0)
(0.996069 0.00481487 0)
(0.996796 0.0093277 0)
(1.00307 0.0104916 0)
(1.00575 0.0060602 0)
(1.00441 0.00254595 0)
(1.00065 -0.00295643 0)
(1.00057 0.00112059 0)
(0.999361 -0.00688653 0)
(0.994541 0.000455251 0)
(0.993416 -0.00228223 0)
(0.999906 -0.00391675 0)
(0.99793 0.0020031 0)
(0.997695 -0.00233207 0)
(0.996435 0.00295389 0)
(0.999089 0.000521666 0)
(1.00267 -2.12857e-05 0)
(1.00433 -0.00486458 0)
(0.996988 -0.00810819 0)
(0.991629 -0.00438345 0)
(0.992694 0.0011142 0)
(0.993244 0.00476674 0)
(0.994027 0.00911196 0)
(1.0008 0.0102972 0)
(1.00452 0.00598281 0)
(1.00392 0.00260833 0)
(1.0007 -0.00271465 0)
(1.00052 0.000944735 0)
(0.999407 -0.00615355 0)
(0.994755 0.000213926 0)
(0.993591 -0.00123629 0)
(1.00014 -0.00386521 0)
(0.997653 0.00196784 0)
(0.99755 -0.00225943 0)
(0.996715 0.00287652 0)
(0.999373 0.000473152 0)
(1.0024 -0.000106758 0)
(1.00375 -0.00473415 0)
(0.997152 -0.00796097 0)
(0.991019 -0.00420555 0)
(0.991653 0.0010691 0)
(0.991805 0.00472289 0)
(0.992603 0.00888464 0)
(0.999641 0.0100511 0)
(1.00394 0.00587318 0)
(1.00375 0.00261959 0)
(1.00086 -0.00244989 0)
(1.00053 0.000763423 0)
(0.999439 -0.00542555 0)
(0.994958 2.37506e-05 0)
(0.99373 -0.000335069 0)
(1.00022 -0.00380871 0)
(0.997493 0.0019287 0)
(0.997533 -0.00218657 0)
(0.997047 0.00278799 0)
(0.999592 0.000436193 0)
(1.00215 -0.000186343 0)
(1.00318 -0.00460155 0)
(0.997102 -0.00780838 0)
(0.990713 -0.00400721 0)
(0.991292 0.00103437 0)
(0.991365 0.00467449 0)
(0.992193 0.00865263 0)
(0.999293 0.00976387 0)
(1.00381 0.00575648 0)
(1.00376 0.00259534 0)
(1.00107 -0.0021589 0)
(1.00055 0.000596212 0)
(0.99947 -0.00472323 0)
(0.995175 -9.52771e-05 0)
(0.993871 0.00042137 0)
(1.00023 -0.00374695 0)
(0.997398 0.00188355 0)
(0.997573 -0.00211224 0)
(0.99734 0.00268959 0)
(0.99975 0.000411276 0)
(1.00195 -0.000261658 0)
(1.00269 -0.00446308 0)
(0.996936 -0.00765304 0)
(0.990605 -0.00380345 0)
(0.991318 0.00100029 0)
(0.991498 0.00461323 0)
(0.992378 0.00842119 0)
(0.999399 0.0094459 0)
(1.0039 0.00564819 0)
(1.00383 0.00254911 0)
(1.00127 -0.00185113 0)
(1.00059 0.000458552 0)
(0.999508 -0.00405826 0)
(0.995419 -0.000116128 0)
(0.994038 0.00104596 0)
(1.00023 -0.00367991 0)
(0.997347 0.00183139 0)
(0.997629 -0.00203485 0)
(0.997562 0.00258178 0)
(0.999852 0.000397529 0)
(1.00179 -0.000334481 0)
(1.00233 -0.00431738 0)
(0.99675 -0.00749528 0)
(0.990627 -0.00360201 0)
(0.991526 0.000963884 0)
(0.991873 0.00453152 0)
(0.992807 0.0081957 0)
(0.999667 0.00910775 0)
(1.00403 0.0055519 0)
(1.00386 0.00249586 0)
(1.00142 -0.00153975 0)
(1.00062 0.000365487 0)
(0.999548 -0.00343718 0)
(0.995688 -6.34976e-05 0)
(0.99424 0.00156263 0)
(1.00022 -0.00360766 0)
(0.997329 0.00177165 0)
(0.997683 -0.00195262 0)
(0.997717 0.00246495 0)
(0.999905 0.000393111 0)
(1.00168 -0.000406726 0)
(1.00206 -0.00416315 0)
(0.996605 -0.00733521 0)
(0.990733 -0.00340871 0)
(0.991798 0.000927895 0)
(0.992291 0.00442502 0)
(0.993262 0.00797801 0)
(0.99992 0.00875426 0)
(1.0041 0.00546839 0)
(1.00382 0.00244469 0)
(1.0015 -0.00123641 0)
(1.00063 0.00032279 0)
(0.999588 -0.00285982 0)
(0.995973 3.91692e-05 0)
(0.994473 0.00198705 0)
(1.00021 -0.00353031 0)
(0.997335 0.00170395 0)
(0.997729 -0.00186417 0)
(0.997822 0.00233975 0)
(0.999918 0.000396456 0)
(1.00159 -0.000480392 0)
(1.00187 -0.00400173 0)
(0.996523 -0.00717072 0)
(0.990895 -0.00322494 0)
(0.99208 0.000895392 0)
(0.99267 0.00429321 0)
(0.993646 0.0077701 0)
(1.00008 0.00838703 0)
(1.00407 0.00539046 0)
(1.0037 0.00241138 0)
(1.00151 -0.00095133 0)
(1.00061 0.000343235 0)
(0.999622 -0.00231652 0)
(0.996265 0.000179912 0)
(0.994729 0.00233658 0)
(1.0002 -0.00344785 0)
(0.997357 0.00162787 0)
(0.997767 -0.00176842 0)
(0.997898 0.00220619 0)
(0.999902 0.000407146 0)
(1.00151 -0.000557511 0)
(1.00171 -0.00383611 0)
(0.9965 -0.00699991 0)
(0.991091 -0.00305151 0)
(0.992352 0.000870441 0)
(0.99299 0.00413857 0)
(0.993939 0.00757194 0)
(1.00015 0.0080156 0)
(1.00397 0.00530739 0)
(1.00352 0.00239443 0)
(1.00149 -0.00069874 0)
(1.00059 0.000407564 0)
(0.999651 -0.00180735 0)
(0.996556 0.000341255 0)
(0.995002 0.00263836 0)
(1.0002 -0.00336045 0)
(0.997391 0.00154379 0)
(0.997798 -0.00166546 0)
(0.997959 0.00206487 0)
(0.999868 0.000424345 0)
(1.00144 -0.000637014 0)
(1.00157 -0.0036693 0)
(0.996518 -0.00682012 0)
(0.991307 -0.00289256 0)
(0.992613 0.00086187 0)
(0.993267 0.00396481 0)
(0.994161 0.00737843 0)
(1.00014 0.00764804 0)
(1.0038 0.00521234 0)
(1.0033 0.00240125 0)
(1.00143 -0.000469599 0)
(1.00055 0.000500254 0)
(0.999678 -0.00131631 0)
(0.996845 0.000504313 0)
(0.995284 0.00289696 0)
(1.00019 -0.00326816 0)
(0.997434 0.00145143 0)
(0.997823 -0.00155439 0)
(0.998017 0.00191606 0)
(0.999824 0.000446281 0)
(1.00137 -0.000717052 0)
(1.00144 -0.00350403 0)
(0.996564 -0.00662793 0)
(0.991535 -0.00274805 0)
(0.992866 0.000866502 0)
(0.993518 0.00377972 0)
(0.994342 0.00718555 0)
(1.00009 0.00728893 0)
(1.00361 0.00509711 0)
(1.00306 0.00244301 0)
(1.00136 -0.000246203 0)
(1.00051 0.000606751 0)
(0.999705 -0.000836471 0)
(0.997127 0.000668373 0)
(0.995577 0.00311292 0)
(1.00018 -0.00317083 0)
(0.997483 0.00135052 0)
(0.997843 -0.00143563 0)
(0.998076 0.00176137 0)
(0.999776 0.000472147 0)
(1.00131 -0.00079628 0)
(1.00131 -0.00334269 0)
(0.996624 -0.00642264 0)
(0.991768 -0.00261958 0)
(0.993114 0.000883438 0)
(0.993759 0.00358154 0)
(0.994502 0.00698941 0)
(1.00001 0.00695449 0)
(1.00342 0.00495491 0)
(1.0028 0.00250813 0)
(1.00129 -2.67523e-05 0)
(1.00048 0.000717464 0)
(0.999735 -0.000370954 0)
(0.997403 0.000840099 0)
(0.995878 0.00328091 0)
(1.00017 -0.00306857 0)
(0.997539 0.00124152 0)
(0.99786 -0.00131039 0)
(0.998136 0.0016018 0)
(0.999726 0.000501703 0)
(1.00125 -0.000871787 0)
(1.00118 -0.00319059 0)
(0.996692 -0.00620023 0)
(0.992006 -0.00250807 0)
(0.993358 0.000913054 0)
(0.993999 0.00337648 0)
(0.994658 0.00678487 0)
(0.999927 0.00664892 0)
(1.00323 0.00478969 0)
(1.00255 0.00258575 0)
(1.00122 0.00019292 0)
(1.00047 0.000823098 0)
(0.999769 7.92074e-05 0)
(0.99767 0.00102392 0)
(0.996188 0.00339352 0)
(1.00016 -0.00296161 0)
(0.9976 0.0011247 0)
(0.997877 -0.00117828 0)
(0.998197 0.00143764 0)
(0.999677 0.000532053 0)
(1.00119 -0.0009432 0)
(1.00105 -0.00304895 0)
(0.996762 -0.00595924 0)
(0.992248 -0.00241131 0)
(0.993598 0.000948707 0)
(0.994242 0.00317786 0)
(0.994814 0.00656124 0)
(0.999837 0.00637184 0)
(1.00305 0.00460428 0)
(1.0023 0.00267319 0)
(1.00114 0.000418655 0)
(1.00047 0.000922199 0)
(0.99981 0.000498077 0)
(0.997924 0.00123025 0)
(0.996505 0.00346388 0)
(1.00014 -0.00285012 0)
(0.997665 0.00100088 0)
(0.997894 -0.00104205 0)
(0.998257 0.0012727 0)
(0.999629 0.000560733 0)
(1.00113 -0.00100564 0)
(1.00092 -0.00291993 0)
(0.996833 -0.00570408 0)
(0.992498 -0.00232362 0)
(0.993834 0.000987633 0)
(0.994486 0.00298387 0)
(0.994975 0.00631889 0)
(0.999747 0.00612115 0)
(1.00288 0.00440932 0)
(1.00207 0.00276444 0)
(1.00105 0.00065581 0)
(1.00048 0.00102202 0)
(0.99986 0.000875467 0)
(0.998165 0.00145911 0)
(0.996825 0.00350232 0)
(1.00013 -0.00273386 0)
(0.997733 0.000869542 0)
(0.997915 -0.000902156 0)
(0.998315 0.00110799 0)
(0.999583 0.00058542 0)
(1.00107 -0.00105504 0)
(1.00081 -0.00280634 0)
(0.996902 -0.00543648 0)
(0.992755 -0.0022437 0)
(0.994067 0.00102005 0)
(0.994731 0.00280649 0)
(0.995139 0.00605954 0)
(0.999658 0.00589443 0)
(1.00272 0.00421262 0)
(1.00186 0.00284263 0)
(1.00097 0.000906503 0)
(1.00051 0.00112703 0)
(0.99992 0.00121029 0)
(0.998391 0.00170183 0)
(0.997145 0.00351761 0)
(1.00012 -0.00261362 0)
(0.997803 0.000732694 0)
(0.997939 -0.00076098 0)
(0.998372 0.000945508 0)
(0.99954 0.000604773 0)
(1.00101 -0.00109009 0)
(1.0007 -0.00270745 0)
(0.99697 -0.00515697 0)
(0.993019 -0.0021717 0)
(0.994299 0.00104191 0)
(0.994975 0.0026481 0)
(0.995308 0.00578603 0)
(0.999572 0.00568674 0)
(1.00257 0.00402633 0)
(1.00166 0.00290492 0)
(1.00087 0.00117123 0)
(1.00055 0.00123583 0)
(0.999992 0.0015005 0)
(0.998603 0.00195253 0)
(0.997461 0.00351935 0)
(1.00011 -0.0024897 0)
(0.997875 0.000591537 0)
(0.997968 -0.000621921 0)
(0.998427 0.000790411 0)
(0.9995 0.000616031 0)
(1.00094 -0.00110976 0)
(1.00059 -0.00262166 0)
(0.997035 -0.00487121 0)
(0.99329 -0.00210009 0)
(0.994529 0.00105537 0)
(0.995218 0.00250172 0)
(0.995481 0.00550626 0)
(0.99949 0.00549027 0)
(1.00243 0.0038544 0)
(1.0015 0.00295653 0)
(1.00078 0.00143849 0)
(1.00059 0.00134708 0)
(1.00008 0.00174185 0)
(0.9988 0.00220867 0)
(0.997767 0.0035245 0)
(1.0001 -0.0023622 0)
(0.997949 0.000446926 0)
(0.998 -0.000487091 0)
(0.998481 0.000644891 0)
(0.999465 0.00061709 0)
(1.00087 -0.00111419 0)
(1.0005 -0.00254614 0)
(0.9971 -0.00458648 0)
(0.993566 -0.00202486 0)
(0.994761 0.00105971 0)
(0.995458 0.00237266 0)
(0.995657 0.00522007 0)
(0.999413 0.00530689 0)
(1.0023 0.00369872 0)
(1.00135 0.00299271 0)
(1.00068 0.00170945 0)
(1.00063 0.00147042 0)
(1.00018 0.00193568 0)
(0.998986 0.00246214 0)
(0.998056 0.0035495 0)
(1.00009 -0.00223222 0)
(0.998027 0.000300979 0)
(0.998035 -0.000359535 0)
(0.998535 0.000511177 0)
(0.999435 0.000608302 0)
(1.0008 -0.0011038 0)
(1.00041 -0.00247834 0)
(0.997166 -0.00430493 0)
(0.993845 -0.00194224 0)
(0.994994 0.00104926 0)
(0.995695 0.00225869 0)
(0.995838 0.00493421 0)
(0.999343 0.0051321 0)
(1.00218 0.00356611 0)
(1.00123 0.00301676 0)
(1.00058 0.00197257 0)
(1.00066 0.00160786 0)
(1.0003 0.00208595 0)
(0.999166 0.00269449 0)
(0.99832 0.00360958 0)
(1.00009 -0.00209945 0)
(0.998108 0.000154925 0)
(0.998074 -0.000242939 0)
(0.998589 0.000393141 0)
(0.99941 0.000589467 0)
(1.00072 -0.00108367 0)
(1.00033 -0.00241471 0)
(0.997233 -0.00402833 0)
(0.994123 -0.00185543 0)
(0.995229 0.00102904 0)
(0.995931 0.00215493 0)
(0.996023 0.00465656 0)
(0.999281 0.00496219 0)
(1.00206 0.00345818 0)
(1.00114 0.00303284 0)
(1.00048 0.00221418 0)
(1.00069 0.00175796 0)
(1.00043 0.00220135 0)
(0.999348 0.00288548 0)
(0.998554 0.00371492 0)
(1.00008 -0.00196579 0)
(0.998194 1.31442e-05 0)
(0.998116 -0.000139426 0)
(0.998641 0.000290249 0)
(0.99939 0.000561531 0)
(1.00064 -0.00105532 0)
(1.00026 -0.00235031 0)
(0.997303 -0.00376155 0)
(0.9944 -0.00176279 0)
(0.995465 0.000998164 0)
(0.996163 0.00206736 0)
(0.996213 0.00439505 0)
(0.999229 0.00479587 0)
(1.00195 0.00337061 0)
(1.00107 0.0030351 0)
(1.00039 0.00243724 0)
(1.00071 0.00191651 0)
(1.00056 0.00230021 0)
(0.999539 0.00303091 0)
(0.998766 0.00384397 0)
(1.00007 -0.00183161 0)
(0.998283 -0.00012467 0)
(0.998161 -5.07145e-05 0)
(0.998693 0.000202814 0)
(0.999375 0.000525913 0)
(1.00057 -0.0010215 0)
(1.00019 -0.00228436 0)
(0.997376 -0.00350279 0)
(0.994675 -0.00166396 0)
(0.995702 0.000958399 0)
(0.996395 0.00199135 0)
(0.996407 0.00415179 0)
(0.999186 0.00463186 0)
(1.00185 0.00329827 0)
(1.00102 0.00303002 0)
(1.00031 0.00263143 0)
(1.00071 0.00207657 0)
(1.0007 0.00239316 0)
(0.999742 0.003137 0)
(0.998964 0.0039579 0)
(1.00007 -0.00169677 0)
(0.998376 -0.000258819 0)
(0.998211 2.12983e-05 0)
(0.998743 0.000129587 0)
(0.999364 0.000484396 0)
(1.00049 -0.000978516 0)
(1.00012 -0.0022204 0)
(0.997453 -0.00325086 0)
(0.994946 -0.00156112 0)
(0.99594 0.000916649 0)
(0.996625 0.00192303 0)
(0.996605 0.00392875 0)
(0.999153 0.00447686 0)
(1.00175 0.00323808 0)
(1.00099 0.00301727 0)
(1.00025 0.00280053 0)
(1.0007 0.00224044 0)
(1.00084 0.00247768 0)
(0.999955 0.00321351 0)
(0.99916 0.00403688 0)
(1.00006 -0.00156353 0)
(0.998473 -0.000383808 0)
(0.998265 7.65068e-05 0)
(0.998792 6.79088e-05 0)
(0.999356 0.000437731 0)
(1.00041 -0.000926433 0)
(1.00007 -0.00215649 0)
(0.997533 -0.00300892 0)
(0.995212 -0.00144833 0)
(0.996177 0.000866748 0)
(0.996853 0.00186492 0)
(0.996805 0.00373015 0)
(0.99913 0.00433046 0)
(1.00166 0.00318368 0)
(1.00099 0.00299079 0)
(1.00019 0.00294771 0)
(1.00068 0.00240664 0)
(1.00096 0.00255031 0)
(1.00017 0.00327189 0)
(0.999362 0.00408233 0)
(1.00005 -0.00143201 0)
(0.998572 -0.000498779 0)
(0.998324 0.000117119 0)
(0.99884 1.47671e-05 0)
(0.999352 0.000387662 0)
(1.00034 -0.000862275 0)
(1.00002 -0.00209667 0)
(0.997618 -0.00277646 0)
(0.995472 -0.0013257 0)
(0.996414 0.000811812 0)
(0.997083 0.00181044 0)
(0.997008 0.0035538 0)
(0.999115 0.00418824 0)
(1.00158 0.00313119 0)
(1.001 0.00295163 0)
(1.00016 0.00306559 0)
(1.00066 0.00257159 0)
(1.00108 0.0026134 0)
(1.0004 0.00331354 0)
(0.999574 0.00410186 0)
(1.00005 -0.0013028 0)
(0.998672 -0.000602999 0)
(0.998389 0.000145378 0)
(0.998887 -3.59599e-05 0)
(0.999353 0.000332969 0)
(1.00026 -0.000785008 0)
(0.999971 -0.00203516 0)
(0.99771 -0.00255665 0)
(0.995726 -0.0011907 0)
(0.996649 0.000763258 0)
(0.997313 0.00174658 0)
(0.997213 0.00339539 0)
(0.999106 0.00404765 0)
(1.0015 0.00307876 0)
(1.00102 0.00290592 0)
(1.00014 0.00315708 0)
(1.00062 0.0027384 0)
(1.00119 0.00267646 0)
(1.00062 0.00333798 0)
(0.999796 0.00410565 0)
(1.00004 -0.00117672 0)
(0.998774 -0.000694889 0)
(0.998457 0.00016129 0)
(0.998934 -8.10524e-05 0)
(0.999359 0.000268788 0)
(1.00019 -0.000695954 0)
(0.999929 -0.00196624 0)
(0.997809 -0.00234819 0)
(0.995973 -0.00104023 0)
(0.996879 0.000730048 0)
(0.997545 0.0016788 0)
(0.997421 0.00324764 0)
(0.999105 0.00391754 0)
(1.00142 0.00303132 0)
(1.00106 0.00284879 0)
(1.00015 0.00321769 0)
(1.00058 0.00290159 0)
(1.00128 0.0027428 0)
(1.00085 0.00334163 0)
(1.00003 0.00409499 0)
(1.00003 -0.00105526 0)
(0.998877 -0.000773838 0)
(0.998531 0.000165623 0)
(0.998979 -0.000118383 0)
(0.999372 0.000195297 0)
(1.00011 -0.000596883 0)
(0.999889 -0.00188546 0)
(0.997915 -0.00216026 0)
(0.996216 -0.000873593 0)
(0.997102 0.000719127 0)
(0.997777 0.0016077 0)
(0.997633 0.00309437 0)
(0.99911 0.00379791 0)
(1.00134 0.00299186 0)
(1.00111 0.00278182 0)
(1.00018 0.0032433 0)
(1.00053 0.00305744 0)
(1.00135 0.00282217 0)
(1.00107 0.00333059 0)
(1.00027 0.00407175 0)
(1.00002 -0.000938499 0)
(0.998979 -0.000839773 0)
(0.998608 0.000158897 0)
(0.999022 -0.000147405 0)
(0.999392 0.000107851 0)
(1.00004 -0.000496025 0)
(0.999849 -0.00177968 0)
(0.99803 -0.0019997 0)
(0.996456 -0.000699259 0)
(0.997314 0.00073652 0)
(0.998003 0.00152786 0)
(0.997849 0.00293078 0)
(0.999126 0.00367718 0)
(1.00125 0.00296438 0)
(1.00117 0.00271857 0)
(1.00024 0.00323137 0)
(1.0005 0.00319281 0)
(1.0014 0.00291829 0)
(1.00128 0.00331333 0)
(1.00051 0.00403525 0)
(1.00002 -0.000826812 0)
(0.99908 -0.000893676 0)
(0.99869 0.000142184 0)
(0.999062 -0.000163609 0)
(0.99942 3.16612e-06 0)
(0.999982 -0.000399622 0)
(0.999808 -0.00164441 0)
(0.998152 -0.00184916 0)
(0.996696 -0.000535008 0)
(0.997515 0.000781196 0)
(0.998222 0.00145882 0)
(0.998071 0.00276108 0)
(0.999154 0.00355614 0)
(1.00117 0.00294849 0)
(1.00123 0.00266447 0)
(1.00032 0.00318823 0)
(1.00048 0.00329475 0)
(1.00142 0.00302221 0)
(1.00148 0.00329307 0)
(1.00077 0.0039741 0)
(1.00001 -0.000722627 0)
(0.999179 -0.000931123 0)
(0.998777 0.000112352 0)
(0.999098 -0.000166054 0)
(0.999454 -0.000109624 0)
(0.999931 -0.000320772 0)
(0.999767 -0.00147657 0)
(0.998277 -0.00170127 0)
(0.996939 -0.000390829 0)
(0.997705 0.000846553 0)
(0.998428 0.0014104 0)
(0.998296 0.00258562 0)
(0.999201 0.00342714 0)
(1.00109 0.00293797 0)
(1.00128 0.00262551 0)
(1.00043 0.00313041 0)
(1.00048 0.00335986 0)
(1.00143 0.00312171 0)
(1.00165 0.00327957 0)
(1.00103 0.00388758 0)
(1.00001 -0.000625356 0)
(0.999276 -0.000952858 0)
(0.998869 6.94522e-05 0)
(0.999131 -0.000152549 0)
(0.999493 -0.000224594 0)
(0.999895 -0.000266616 0)
(0.999726 -0.00128225 0)
(0.998402 -0.00154854 0)
(0.997184 -0.000272397 0)
(0.997887 0.000917831 0)
(0.998619 0.00138865 0)
(0.998522 0.00241656 0)
(0.999266 0.00328367 0)
(1.00102 0.00292846 0)
(1.00132 0.00260308 0)
(1.00055 0.00306494 0)
(1.0005 0.00339109 0)
(1.00142 0.00320801 0)
(1.00179 0.00328174 0)
(1.00128 0.00378941 0)
(1 -0.000536928 0)
(0.999369 -0.000957251 0)
(0.998966 1.31848e-05 0)
(0.999161 -0.000122854 0)
(0.999535 -0.000332509 0)
(0.999878 -0.000244299 0)
(0.99969 -0.00107332 0)
(0.998523 -0.00138188 0)
(0.997432 -0.000180841 0)
(0.998066 0.000982573 0)
(0.998793 0.00139577 0)
(0.998742 0.00226506 0)
(0.999353 0.00312848 0)
(1.00095 0.00291242 0)
(1.00136 0.00259614 0)
(1.00069 0.00299919 0)
(1.00054 0.0033994 0)
(1.00141 0.00327986 0)
(1.0019 0.00329591 0)
(1.00153 0.00369566 0)
(0.999997 -0.000457854 0)
(0.999457 -0.00094353 0)
(0.999067 -5.63657e-05 0)
(0.999188 -7.94639e-05 0)
(0.999576 -0.000423365 0)
(0.99988 -0.000254413 0)
(0.999663 -0.000862173 0)
(0.998637 -0.00119634 0)
(0.997679 -0.000108276 0)
(0.998245 0.00103708 0)
(0.998953 0.00142258 0)
(0.998952 0.00214397 0)
(0.999458 0.00296446 0)
(1.00091 0.00287628 0)
(1.00139 0.00259878 0)
(1.00083 0.00293748 0)
(1.00061 0.00338691 0)
(1.0014 0.00333663 0)
(1.00198 0.00331164 0)
(1.00175 0.00361724 0)
(0.999995 -0.000388564 0)
(0.999539 -0.000912166 0)
(0.999174 -0.000137657 0)
(0.999215 -2.92681e-05 0)
(0.999614 -0.000484171 0)
(0.999903 -0.000294534 0)
(0.99965 -0.000661189 0)
(0.998742 -0.000982236 0)
(0.997924 -5.01085e-05 0)
(0.998428 0.00106267 0)
(0.999101 0.00145799 0)
(0.999148 0.00205479 0)
(0.999575 0.00280614 0)
(1.00088 0.00281775 0)
(1.00142 0.00259973 0)
(1.00097 0.00287992 0)
(1.0007 0.00335152 0)
(1.00139 0.0033782 0)
(1.00204 0.00332578 0)
(1.00194 0.00355364 0)
(0.999993 -0.00033013 0)
(0.999613 -0.000863748 0)
(0.999284 -0.000227031 0)
(0.999244 1.99886e-05 0)
(0.999646 -0.000505222 0)
(0.999944 -0.00035613 0)
(0.999657 -0.000485106 0)
(0.998837 -0.000747895 0)
(0.998156 6.04222e-06 0)
(0.998618 0.00105691 0)
(0.999246 0.00149147 0)
(0.999329 0.00199538 0)
(0.999699 0.00266678 0)
(1.00087 0.00274587 0)
(1.00145 0.00258942 0)
(1.00111 0.00282559 0)
(1.00081 0.00329679 0)
(1.0014 0.00340094 0)
(1.00208 0.00334077 0)
(1.0021 0.00349393 0)
(0.999993 -0.000281449 0)
(0.999679 -0.000801873 0)
(0.999398 -0.000319196 0)
(0.999278 6.32604e-05 0)
(0.999669 -0.000479189 0)
(0.999999 -0.000430768 0)
(0.999688 -0.00034815 0)
(0.998926 -0.000501089 0)
(0.998374 7.87225e-05 0)
(0.998813 0.00103259 0)
(0.999392 0.00150689 0)
(0.999497 0.00196175 0)
(0.999825 0.00255049 0)
(1.00088 0.00266732 0)
(1.00149 0.00256208 0)
(1.00124 0.00276838 0)
(1.00094 0.00322709 0)
(1.00142 0.00339804 0)
(1.0021 0.00335755 0)
(1.00224 0.00343926 0)
(0.999994 -0.000243271 0)
(0.999736 -0.000727284 0)
(0.999512 -0.000408006 0)
(0.999321 9.14254e-05 0)
(0.999682 -0.000404121 0)
(1.00006 -0.00050073 0)
(0.99975 -0.000264512 0)
(0.999014 -0.000256579 0)
(0.99857 0.000184777 0)
(0.999008 0.00100298 0)
(0.999547 0.00149782 0)
(0.99966 0.00193708 0)
(0.99995 0.00246245 0)
(1.00091 0.00259162 0)
(1.00153 0.00252586 0)
(1.00138 0.00270792 0)
(1.00109 0.00314757 0)
(1.00147 0.00336658 0)
(1.00212 0.00336483 0)
(1.00234 0.00339766 0)
(0.999996 -0.000214775 0)
(0.999783 -0.000643258 0)
(0.999624 -0.000487155 0)
(0.999377 9.5331e-05 0)
(0.999687 -0.000294654 0)
(1.00012 -0.000537417 0)
(0.99984 -0.0002354 0)
(0.999112 -2.94478e-05 0)
(0.998746 0.00033067 0)
(0.999195 0.000983267 0)
(0.999708 0.00146769 0)
(0.999822 0.00190408 0)
(1.00007 0.00239611 0)
(1.00094 0.002529 0)
(1.00157 0.00248856 0)
(1.00152 0.00264464 0)
(1.00125 0.00306068 0)
(1.00154 0.00331182 0)
(1.00214 0.00334921 0)
(1.00241 0.00336946 0)
(0.999999 -0.000194665 0)
(0.999821 -0.000552504 0)
(0.999731 -0.000550584 0)
(0.999448 7.10993e-05 0)
(0.999688 -0.000169632 0)
(1.00017 -0.000528164 0)
(0.999956 -0.000250346 0)
(0.999229 0.000162687 0)
(0.998901 0.000503506 0)
(0.999365 0.000988728 0)
(0.999873 0.00142005 0)
(0.999991 0.00185768 0)
(1.0002 0.00233634 0)
(1.00098 0.00248395 0)
(1.00162 0.00245679 0)
(1.00165 0.00258077 0)
(1.00142 0.00296495 0)
(1.00163 0.00324018 0)
(1.00217 0.00330634 0)
(1.00247 0.00333627 0)
(1 -0.000181411 0)
(0.99985 -0.000460154 0)
(0.999829 -0.000593325 0)
(0.999532 2.10736e-05 0)
(0.999691 -4.71692e-05 0)
(1.00021 -0.000456915 0)
(1.00009 -0.000290705 0)
(0.999373 0.000284113 0)
(0.999043 0.00068346 0)
(0.999511 0.00103977 0)
(1.00004 0.00138001 0)
(1.00017 0.00179443 0)
(1.00034 0.00227238 0)
(1.00103 0.0024434 0)
(1.00166 0.00243426 0)
(1.00178 0.00252552 0)
(1.0016 0.00286409 0)
(1.00174 0.00315645 0)
(1.00222 0.00324686 0)
(1.00252 0.00328251 0)
(1.00001 -0.000172358 0)
(0.99987 -0.000374002 0)
(0.999915 -0.000607857 0)
(0.999629 -5.02415e-05 0)
(0.999704 5.97828e-05 0)
(1.00023 -0.000330897 0)
(1.00022 -0.000318096 0)
(0.999547 0.00032787 0)
(0.999189 0.000845954 0)
(0.999635 0.00112633 0)
(1.00018 0.00136254 0)
(1.00034 0.00171943 0)
(1.00049 0.00219879 0)
(1.00109 0.00240121 0)
(1.00171 0.00241727 0)
(1.0019 0.00248608 0)
(1.00177 0.00276901 0)
(1.00187 0.00305914 0)
(1.00228 0.00317862 0)
(1.00258 0.00320412 0)
(1.00001 -0.000164498 0)
(0.999883 -0.000297754 0)
(0.999985 -0.000592168 0)
(0.999734 -0.000131592 0)
(0.999734 0.00014138 0)
(1.00023 -0.000178344 0)
(1.00034 -0.000306874 0)
(0.999745 0.000314512 0)
(0.999349 0.000964793 0)
(0.99974 0.00123842 0)
(1.0003 0.0013752 0)
(1.00052 0.00165322 0)
(1.00066 0.00210512 0)
(1.00117 0.00234954 0)
(1.00176 0.00239538 0)
(1.002 0.0024547 0)
(1.00194 0.00269046 0)
(1.00201 0.00295384 0)
(1.00235 0.0031053 0)
(1.00265 0.00311324 0)
(1.00002 -0.00015657 0)
(0.999893 -0.000233538 0)
(1.00004 -0.000548823 0)
(0.999843 -0.000204683 0)
(0.999783 0.000185849 0)
(1.00022 -1.96857e-05 0)
(1.00044 -0.000240114 0)
(0.999957 0.000276566 0)
(0.999534 0.00100836 0)
(0.999836 0.00135059 0)
(1.0004 0.00142815 0)
(1.00067 0.00160958 0)
(1.00083 0.00200643 0)
(1.00127 0.002279 0)
(1.00182 0.00236666 0)
(1.0021 0.00242014 0)
(1.0021 0.00262582 0)
(1.00215 0.00285056 0)
(1.00242 0.00302538 0)
(1.00271 0.00302558 0)
(1.00002 -0.000147224 0)
(0.999902 -0.000180108 0)
(1.00008 -0.000483902 0)
(0.999949 -0.000259159 0)
(0.999852 0.000197696 0)
(1.00021 0.000131635 0)
(1.00051 -0.00012515 0)
(1.00016 0.000243472 0)
(0.999744 0.000981884 0)
(0.999945 0.00142476 0)
(1.00048 0.00150776 0)
(1.0008 0.00159512 0)
(1.001 0.0019191 0)
(1.00138 0.00219019 0)
(1.00189 0.00232455 0)
(1.00219 0.00238035 0)
(1.00224 0.00256463 0)
(1.0023 0.00275418 0)
(1.00251 0.00293575 0)
(1.00276 0.00294549 0)
(1.00002 -0.000135028 0)
(0.99991 -0.000138142 0)
(1.0001 -0.000404194 0)
(1.00005 -0.000285898 0)
(0.999938 0.000182368 0)
(1.00022 0.000266872 0)
(1.00056 1.45786e-05 0)
(1.00034 0.000237499 0)
(0.999971 0.000917392 0)
(1.00008 0.00144678 0)
(1.00054 0.00158458 0)
(1.0009 0.00162156 0)
(1.00115 0.0018521 0)
(1.00151 0.00209465 0)
(1.00197 0.00225943 0)
(1.00228 0.00233082 0)
(1.00237 0.00250044 0)
(1.00244 0.0026625 0)
(1.0026 0.00283991 0)
(1.00281 0.00286969 0)
(1.00003 -0.000118428 0)
(0.99992 -0.000107676 0)
(1.00012 -0.000316653 0)
(1.00013 -0.000282359 0)
(1.00004 0.000151073 0)
(1.00023 0.000364923 0)
(1.00059 0.000171514 0)
(1.00049 0.000281974 0)
(1.0002 0.000845155 0)
(1.00023 0.00141119 0)
(1.00061 0.00163359 0)
(1.00097 0.00167015 0)
(1.00127 0.00182047 0)
(1.00163 0.00200931 0)
(1.00206 0.0021803 0)
(1.00238 0.00226607 0)
(1.0025 0.00243206 0)
(1.00257 0.00257002 0)
(1.0027 0.00273718 0)
(1.00285 0.00278635 0)
(1.00003 -9.89691e-05 0)
(0.999931 -8.50531e-05 0)
(1.00013 -0.000229525 0)
(1.0002 -0.000248408 0)
(1.00015 0.000118936 0)
(1.00027 0.000419543 0)
(1.00061 0.000322904 0)
(1.00061 0.000369163 0)
(1.00041 0.000796171 0)
(1.00041 0.00133754 0)
(1.0007 0.00164395 0)
(1.00103 0.0017117 0)
(1.00136 0.0018192 0)
(1.00174 0.00194292 0)
(1.00216 0.00209925 0)
(1.00248 0.00218365 0)
(1.00261 0.00235381 0)
(1.0027 0.00247765 0)
(1.0028 0.00262873 0)
(1.0029 0.00269349 0)
(1.00003 -7.70681e-05 0)
(0.999945 -6.82422e-05 0)
(1.00014 -0.000150089 0)
(1.00026 -0.000188036 0)
(1.00025 9.62642e-05 0)
(1.00033 0.000444289 0)
(1.00063 0.000449448 0)
(1.0007 0.000472682 0)
(1.00059 0.000781095 0)
(1.00059 0.00125638 0)
(1.00081 0.00160748 0)
(1.00109 0.00173542 0)
(1.00143 0.00183187 0)
(1.00182 0.00190416 0)
(1.00224 0.00202963 0)
(1.00258 0.00209508 0)
(1.00273 0.00225836 0)
(1.00281 0.0023822 0)
(1.00291 0.00251426 0)
(1.00295 0.00258594 0)
(1.00003 -5.37132e-05 0)
(0.999961 -5.22749e-05 0)
(1.00015 -8.22036e-05 0)
(1.0003 -0.000113749 0)
(1.00035 9.25671e-05 0)
(1.0004 0.000449671 0)
(1.00066 0.000547975 0)
(1.00076 0.000581644 0)
(1.00074 0.000802487 0)
(1.00077 0.0011923 0)
(1.00094 0.0015384 0)
(1.00117 0.0017276 0)
(1.00148 0.00184104 0)
(1.00188 0.00188279 0)
(1.0023 0.00197432 0)
(1.00266 0.00201504 0)
(1.00285 0.00215136 0)
(1.00292 0.00227818 0)